# vtk DataFile Version 2.0
15001 -th Step
ASCII
DATASET UNSTRUCTURED_GRID
POINTS 9261 float
0.0 0.0 0.0
1.0 0.0 0.0
0.0 1.0 0.0
1.0 1.0 0.0
1.0 1.0 1.0
1.0 0.0 1.0
0.0 1.0 1.0
0.0 0.0 1.0
0.0 1.0 0.0213167761802
0.0 1.0 0.0478256198006
0.0 1.0 0.0803927314655
0.0 1.0 0.119810228776
0.0 1.0 0.166666670984
0.0 1.0 0.221186998955
0.0 1.0 0.283067740058
0.0 1.0 0.35135249059
0.0 1.0 0.424401951113
0.0 1.0 0.499999999998
0.0 1.0 0.575598048883
0.0 1.0 0.648647509407
0.0 1.0 0.71693225994
0.0 1.0 0.778813001043
0.0 1.0 0.833333329015
0.0 1.0 0.880189771223
0.0 1.0 0.919607268534
0.0 1.0 0.952174380199
0.0 1.0 0.97868322382
0.0213167761802 1.0 1.0
0.0478256198006 1.0 1.0
0.0803927314655 1.0 1.0
0.119810228776 1.0 1.0
0.166666670984 1.0 1.0
0.221186998955 1.0 1.0
0.283067740058 1.0 1.0
0.35135249059 1.0 1.0
0.424401951113 1.0 1.0
0.499999999998 1.0 1.0
0.575598048883 1.0 1.0
0.648647509407 1.0 1.0
0.71693225994 1.0 1.0
0.778813001043 1.0 1.0
0.833333329015 1.0 1.0
0.880189771223 1.0 1.0
0.919607268534 1.0 1.0
0.952174380199 1.0 1.0
0.97868322382 1.0 1.0
1.0 1.0 0.97868322382
1.0 1.0 0.952174380199
1.0 1.0 0.919607268534
1.0 1.0 0.880189771223
1.0 1.0 0.833333329015
1.0 1.0 0.778813001044
1.0 1.0 0.716932259942
1.0 1.0 0.64864750941
1.0 1.0 0.575598048887
1.0 1.0 0.500000000002
1.0 1.0 0.424401951117
1.0 1.0 0.351352490593
1.0 1.0 0.28306774006
1.0 1.0 0.221186998957
1.0 1.0 0.166666670985
1.0 1.0 0.119810228777
1.0 1.0 0.080392731466
1.0 1.0 0.047825619801
1.0 1.0 0.0213167761803
0.97868322382 1.0 0.0
0.952174380199 1.0 0.0
0.919607268534 1.0 0.0
0.880189771223 1.0 0.0
0.833333329015 1.0 0.0
0.778813001044 1.0 0.0
0.716932259942 1.0 0.0
0.64864750941 1.0 0.0
0.575598048887 1.0 0.0
0.500000000002 1.0 0.0
0.424401951117 1.0 0.0
0.351352490593 1.0 0.0
0.28306774006 1.0 0.0
0.221186998957 1.0 0.0
0.166666670985 1.0 0.0
0.119810228777 1.0 0.0
0.080392731466 1.0 0.0
0.047825619801 1.0 0.0
0.0213167761803 1.0 0.0
0.0 0.97868322382 0.0
0.0 0.952174380199 0.0
0.0 0.919607268534 0.0
0.0 0.880189771223 0.0
0.0 0.833333329015 0.0
0.0 0.778813001044 0.0
0.0 0.716932259942 0.0
0.0 0.64864750941 0.0
0.0 0.575598048887 0.0
0.0 0.500000000002 0.0
0.0 0.424401951117 0.0
0.0 0.351352490593 0.0
0.0 0.28306774006 0.0
0.0 0.221186998957 0.0
0.0 0.166666670985 0.0
0.0 0.119810228777 0.0
0.0 0.080392731466 0.0
0.0 0.047825619801 0.0
0.0 0.0213167761803 0.0
1.0 0.0213167761802 0.0
1.0 0.0478256198006 0.0
1.0 0.0803927314655 0.0
1.0 0.119810228776 0.0
1.0 0.166666670984 0.0
1.0 0.221186998955 0.0
1.0 0.283067740058 0.0
1.0 0.35135249059 0.0
1.0 0.424401951113 0.0
1.0 0.499999999998 0.0
1.0 0.575598048883 0.0
1.0 0.648647509407 0.0
1.0 0.71693225994 0.0
1.0 0.778813001043 0.0
1.0 0.833333329015 0.0
1.0 0.880189771223 0.0
1.0 0.919607268534 0.0
1.0 0.952174380199 0.0
1.0 0.97868322382 0.0
1.0 0.0 0.0213167761802
1.0 0.0 0.0478256198006
1.0 0.0 0.0803927314655
1.0 0.0 0.119810228776
1.0 0.0 0.166666670984
1.0 0.0 0.221186998955
1.0 0.0 0.283067740058
1.0 0.0 0.35135249059
1.0 0.0 0.424401951113
1.0 0.0 0.499999999998
1.0 0.0 0.575598048883
1.0 0.0 0.648647509407
1.0 0.0 0.71693225994
1.0 0.0 0.778813001043
1.0 0.0 0.833333329015
1.0 0.0 0.880189771223
1.0 0.0 0.919607268534
1.0 0.0 0.952174380199
1.0 0.0 0.97868322382
0.97868322382 0.0 1.0
0.952174380199 0.0 1.0
0.919607268534 0.0 1.0
0.880189771223 0.0 1.0
0.833333329015 0.0 1.0
0.778813001044 0.0 1.0
0.716932259942 0.0 1.0
0.64864750941 0.0 1.0
0.575598048887 0.0 1.0
0.500000000002 0.0 1.0
0.424401951117 0.0 1.0
0.351352490593 0.0 1.0
0.28306774006 0.0 1.0
0.221186998957 0.0 1.0
0.166666670985 0.0 1.0
0.119810228777 0.0 1.0
0.080392731466 0.0 1.0
0.047825619801 0.0 1.0
0.0213167761803 0.0 1.0
0.0 0.0 0.97868322382
0.0 0.0 0.952174380199
0.0 0.0 0.919607268534
0.0 0.0 0.880189771223
0.0 0.0 0.833333329015
0.0 0.0 0.778813001044
0.0 0.0 0.716932259942
0.0 0.0 0.64864750941
0.0 0.0 0.575598048887
0.0 0.0 0.500000000002
0.0 0.0 0.424401951117
0.0 0.0 0.351352490593
0.0 0.0 0.28306774006
0.0 0.0 0.221186998957
0.0 0.0 0.166666670985
0.0 0.0 0.119810228777
0.0 0.0 0.080392731466
0.0 0.0 0.047825619801
0.0 0.0 0.0213167761803
0.0213167761802 0.0 0.0
0.0478256198006 0.0 0.0
0.0803927314655 0.0 0.0
0.119810228776 0.0 0.0
0.166666670984 0.0 0.0
0.221186998955 0.0 0.0
0.283067740058 0.0 0.0
0.35135249059 0.0 0.0
0.424401951113 0.0 0.0
0.499999999998 0.0 0.0
0.575598048883 0.0 0.0
0.648647509407 0.0 0.0
0.71693225994 0.0 0.0
0.778813001043 0.0 0.0
0.833333329015 0.0 0.0
0.880189771223 0.0 0.0
0.919607268534 0.0 0.0
0.952174380199 0.0 0.0
0.97868322382 0.0 0.0
0.0 0.0213167761802 1.0
0.0 0.0478256198006 1.0
0.0 0.0803927314655 1.0
0.0 0.119810228776 1.0
0.0 0.166666670984 1.0
0.0 0.221186998955 1.0
0.0 0.283067740058 1.0
0.0 0.35135249059 1.0
0.0 0.424401951113 1.0
0.0 0.499999999998 1.0
0.0 0.575598048883 1.0
0.0 0.648647509407 1.0
0.0 0.71693225994 1.0
0.0 0.778813001043 1.0
0.0 0.833333329015 1.0
0.0 0.880189771223 1.0
0.0 0.919607268534 1.0
0.0 0.952174380199 1.0
0.0 0.97868322382 1.0
1.0 0.0213167761802 1.0
1.0 0.0478256198006 1.0
1.0 0.0803927314655 1.0
1.0 0.119810228776 1.0
1.0 0.166666670984 1.0
1.0 0.221186998955 1.0
1.0 0.283067740058 1.0
1.0 0.35135249059 1.0
1.0 0.424401951113 1.0
1.0 0.499999999998 1.0
1.0 0.575598048883 1.0
1.0 0.648647509407 1.0
1.0 0.71693225994 1.0
1.0 0.778813001043 1.0
1.0 0.833333329015 1.0
1.0 0.880189771223 1.0
1.0 0.919607268534 1.0
1.0 0.952174380199 1.0
1.0 0.97868322382 1.0
0.97868322382 0.0 0.0213167761802
0.952174380199 0.0 0.0213167761802
0.919607268534 0.0 0.0213167761802
0.880189771223 0.0 0.0213167761802
0.833333329015 0.0 0.0213167761802
0.778813001043 0.0 0.0213167761802
0.71693225994 0.0 0.0213167761802
0.648647509407 0.0 0.0213167761802
0.575598048883 0.0 0.0213167761802
0.499999999998 0.0 0.0213167761802
0.424401951114 0.0 0.0213167761803
0.35135249059 0.0 0.0213167761803
0.283067740058 0.0 0.0213167761803
0.221186998955 0.0 0.0213167761803
0.166666670984 0.0 0.0213167761803
0.119810228776 0.0 0.0213167761803
0.0803927314655 0.0 0.0213167761803
0.0478256198006 0.0 0.0213167761803
0.0213167761802 0.0 0.0213167761803
0.97868322382 0.0 0.0478256198006
0.952174380199 0.0 0.0478256198007
0.919607268534 0.0 0.0478256198007
0.880189771223 0.0 0.0478256198007
0.833333329015 0.0 0.0478256198007
0.778813001043 0.0 0.0478256198007
0.71693225994 0.0 0.0478256198007
0.648647509407 0.0 0.0478256198008
0.575598048883 0.0 0.0478256198008
0.499999999998 0.0 0.0478256198008
0.424401951114 0.0 0.0478256198008
0.35135249059 0.0 0.0478256198008
0.283067740058 0.0 0.0478256198009
0.221186998955 0.0 0.0478256198009
0.166666670984 0.0 0.0478256198009
0.119810228776 0.0 0.0478256198009
0.0803927314655 0.0 0.0478256198009
0.0478256198007 0.0 0.0478256198009
0.0213167761802 0.0 0.0478256198009
0.97868322382 0.0 0.0803927314655
0.952174380199 0.0 0.0803927314655
0.919607268534 0.0 0.0803927314655
0.880189771223 0.0 0.0803927314655
0.833333329015 0.0 0.0803927314656
0.778813001043 0.0 0.0803927314656
0.71693225994 0.0 0.0803927314656
0.648647509407 0.0 0.0803927314657
0.575598048883 0.0 0.0803927314657
0.499999999998 0.0 0.0803927314657
0.424401951114 0.0 0.0803927314658
0.35135249059 0.0 0.0803927314658
0.283067740058 0.0 0.0803927314659
0.221186998955 0.0 0.0803927314659
0.166666670984 0.0 0.0803927314659
0.119810228776 0.0 0.080392731466
0.0803927314655 0.0 0.080392731466
0.0478256198007 0.0 0.080392731466
0.0213167761802 0.0 0.080392731466
0.97868322382 0.0 0.119810228776
0.952174380199 0.0 0.119810228776
0.919607268534 0.0 0.119810228776
0.880189771223 0.0 0.119810228776
0.833333329015 0.0 0.119810228776
0.778813001043 0.0 0.119810228777
0.71693225994 0.0 0.119810228777
0.648647509408 0.0 0.119810228777
0.575598048884 0.0 0.119810228777
0.499999999999 0.0 0.119810228777
0.424401951114 0.0 0.119810228777
0.35135249059 0.0 0.119810228777
0.283067740058 0.0 0.119810228777
0.221186998955 0.0 0.119810228777
0.166666670984 0.0 0.119810228777
0.119810228776 0.0 0.119810228777
0.0803927314655 0.0 0.119810228777
0.0478256198007 0.0 0.119810228777
0.0213167761802 0.0 0.119810228777
0.97868322382 0.0 0.166666670984
0.952174380199 0.0 0.166666670984
0.919607268534 0.0 0.166666670984
0.880189771223 0.0 0.166666670984
0.833333329015 0.0 0.166666670984
0.778813001043 0.0 0.166666670984
0.71693225994 0.0 0.166666670985
0.648647509408 0.0 0.166666670985
0.575598048884 0.0 0.166666670985
0.499999999999 0.0 0.166666670985
0.424401951114 0.0 0.166666670985
0.35135249059 0.0 0.166666670985
0.283067740058 0.0 0.166666670985
0.221186998955 0.0 0.166666670985
0.166666670984 0.0 0.166666670985
0.119810228776 0.0 0.166666670985
0.0803927314656 0.0 0.166666670985
0.0478256198007 0.0 0.166666670985
0.0213167761802 0.0 0.166666670985
0.97868322382 0.0 0.221186998955
0.952174380199 0.0 0.221186998955
0.919607268534 0.0 0.221186998955
0.880189771223 0.0 0.221186998955
0.833333329015 0.0 0.221186998955
0.778813001043 0.0 0.221186998955
0.71693225994 0.0 0.221186998956
0.648647509408 0.0 0.221186998956
0.575598048884 0.0 0.221186998956
0.499999999999 0.0 0.221186998956
0.424401951114 0.0 0.221186998956
0.351352490591 0.0 0.221186998956
0.283067740058 0.0 0.221186998956
0.221186998955 0.0 0.221186998957
0.166666670984 0.0 0.221186998957
0.119810228777 0.0 0.221186998957
0.0803927314656 0.0 0.221186998957
0.0478256198007 0.0 0.221186998957
0.0213167761802 0.0 0.221186998957
0.97868322382 0.0 0.283067740058
0.952174380199 0.0 0.283067740058
0.919607268534 0.0 0.283067740058
0.880189771223 0.0 0.283067740058
0.833333329015 0.0 0.283067740058
0.778813001044 0.0 0.283067740058
0.71693225994 0.0 0.283067740059
0.648647509408 0.0 0.283067740059
0.575598048884 0.0 0.283067740059
0.499999999999 0.0 0.283067740059
0.424401951115 0.0 0.283067740059
0.351352490591 0.0 0.28306774006
0.283067740059 0.0 0.28306774006
0.221186998956 0.0 0.28306774006
0.166666670985 0.0 0.28306774006
0.119810228777 0.0 0.28306774006
0.0803927314656 0.0 0.28306774006
0.0478256198007 0.0 0.28306774006
0.0213167761802 0.0 0.28306774006
[...]
CELL_DATA 8000
SCALARS Density float 1
LOOKUP_TABLE default
1.00000000035
1.00000000007
1.00000000036
1.00000000007
0.99999999967
0.999999999976
1.00000000008
1.0
0.999999999996
1.0
1.0
1.0
1.0
0.999999999998
1.0
1.00000000001
0.999999999957
1.00000000009
1.00000000019
1.00000000005
1.00000000023
1.00000000013
1.00000000013
1.00000000001
1.00000000007
0.999999999997
1.00000000001
1.0
0.999999999998
1.00000000001
1.0
0.999999999999
1.0
0.999999999999
1.0
0.999999999968
0.999999999971
1.00000000031
1.00000000009
0.999999999944
0.999999997977
1.00000000089
1.00000000063
1.00000000011
1.00000000054
1.00000000001
0.999999999963
1.0
0.999999999999
0.999999999995
1.0
1.0
1.0
1.0
1.0
0.999999999993
0.999999999994
1.00000000001
0.999999999923
0.999999999994
0.999999999036
1.00000000021
1.00000000018
1.00000000006
1.00000000014
1.0
0.99999999999
1.0
1.0
0.999999999997
1.0
1.0
1.0
1.0
0.999999999995
0.999999999999
0.999999999864
1.00000000005
1.00000000081
1.00000000029
1.00000000409
0.999999988455
0.999999988652
1.0000000009
1.00000000075
1.00000000005
1.00000000006
1.0
1.0
1.0
1.0
1.0
1.0
1.0
0.999999999999
0.999999999999
0.99999999997
1.00000000003
1.00000000022
1.00000000007
1.00000000156
0.999999997346
0.999999997291
1.00000000005
1.00000000005
1.00000000002
1.00000000002
1.0
1.0
1.0
1.0
1.0
0.999999999999
1.0
0.999999999918
1.00000000011
1.00000000144
0.999999999616
0.99999999616
0.999999998222
0.999999995127
1.00000004679
1.00000004808
0.999999990297
0.999999989819
1.00000000027
1.00000000028
1.00000000001
1.00000000001
1.0
1.0
1.0
1.0
1.0
1.0
0.999999999999
1.00000000002
0.999999999985
0.999999999863
0.999999999954
0.999999998672
1.00000000651
1.00000000682
0.999999999057
0.99999999897
1.0
0.999999999997
1.0
1.0
1.0
1.0
1.0
1.0
1.0
0.999999999997
1.0
0.999999999928
1.00000000006
1.00000000041
1.00000000014
1.00000000167
0.999999994006
0.999999993868
1.00000000048
1.0000000005
1.00000000003
1.00000000004
1.0
1.0
1.0
1.0
1.0
1.0
1.0
1.0
1.0
1.0
1.0
1.0
0.999999999999
1.00000000032
0.999999999492
0.999999999469
1.0
1.0
1.0
1.0
1.0
1.0
1.0
1.0
1.0
1.0
1.0
1.0
1.0
0.999999999999
1.0
0.999999999996
1.0
0.99999999986
1.00000000003
1.00000000001
1.00000000002
1.00000000002
1.0
1.0
1.0
1.0
1.0
1.0
1.0
1.0
1.0
1.0
1.0
1.0
1.0
1.0
1.0
0.999999999963
1.00000000001
1.00000000001
1.0
1.0
1.0
1.0
1.0
1.0
1.0
1.0
1.0
1.0
1.00000000001
1.0
1.0
1.0
1.0
1.0
0.999999999999
0.99999999968
1.00000000158
1.00000000177
0.999999999756
0.999999999698
1.0
1.0
1.0
1.0
1.0
1.0
1.0
1.0
1.00000000001
1.0
1.0
1.0
1.0
0.999999999999
1.0
1.00000000003
0.999999999983
0.999999999976
0.999999999999
1.0
1.0
1.0
1.0
1.0
1.0
1.0
1.00000000003
0.999999999997
1.00000000016
1.00000000001
1.00000000003
1.00000000001
0.999999999993
0.999999999981
0.999999999978
1.00000000024
0.999999999881
0.999999999725
0.999999999963
1.0
1.0
1.0
1.0
1.0
1.0
1.0
1.00000000002
0.999999999993
1.00000000011
1.00000000001
1.00000000003
0.999999999994
1.0
0.999999999968
1.0
0.999999999987
0.999999999994
0.999999999999
1.0
1.0
1.0
1.0
1.0
1.0
1.00000000002
0.999999999997
1.00000000022
0.999999999919
0.999999993386
1.00000000004
1.00000000035
0.999999999996
1.00000000004
0.9999999992
1.0000000001
0.999999999948
0.99999999998
1.0
1.0
1.0
1.0
1.0
1.0
1.0
1.00000000003
0.999999999996
1.0000000002
0.999999999942
0.999999994137
1.00000000003
1.00000000033
0.999999999902
1.00000000027
1.00000000065
1.00000000032
0.999999999997
0.999999999999
1.0
1.0
0.999999999999
1.0
1.0
1.0
1.0
1.00000000006
0.99999999996
0.999999996153
1.00000000111
1.00000003263
0.999999998805
0.999999993275
0.999999997122
1.00000000164
1.00000001211
1.00000000386
1.0
1.0
1.0
1.0
1.0
1.0
1.0
1.0
1.0
1.00000000003
0.999999999961
0.999999996293
1.00000000106
1.00000003076
0.999999998835
0.999999993664
0.999999998516
1.00000000052
1.00000000575
1.00000000189
1.0
0.999999999999
0.999999999999
0.999999999999
1.0
1.0
1.0
1.00000000001
0.999999999997
0.999999999827
1.00000000007
1.00000000128
0.999999999565
0.999999995885
1.00000000027
1.00000000336
1.00000000452
0.999999997749
0.999999988549
0.999999995004
1.00000000009
1.00000000005
1.0000000002
1.00000000005
0.999999999803
0.99999999999
1.00000000005
1.0
0.999999999999
0.999999999999
1.0
1.0
1.0
0.999999999999
0.999999999999
1.00000000001
0.999999999981
1.00000000004
1.0000000001
1.00000000003
1.00000000005
1.00000000007
1.00000000008
1.00000000002
1.00000000003
0.999999999998
1.00000000001
1.0
0.999999999999
1.0
1.0
0.999999999999
1.0
0.999999999999
1.0
0.999999999993
0.999999999984
1.00000000016
1.00000000008
0.999999999986
0.999999998887
1.0000000001
0.999999999992
1.00000000008
1.00000000028
1.0
0.999999999994
1.0
0.999999999999
0.999999999996
1.0
1.0
1.0
1.0
1.0
0.999999999998
0.999999999994
1.0
0.999999999981
1.00000000001
0.9999999995
0.999999999956
0.999999999943
1.00000000003
1.00000000007
1.0
0.999999999998
1.0
1.0
0.999999999998
1.0
1.0
1.0
1.0
0.999999999995
1.0
0.999999999973
1.00000000002
1.00000000036
1.0000000001
1.00000000286
0.999999994643
0.999999994769
1.00000000011
1.00000000004
1.00000000003
1.00000000004
1.0
1.0
1.0
1.0
1.0
1.0
1.0
0.999999999999
1.0
0.999999999997
1.00000000001
1.00000000009
1.00000000002
1.00000000104
0.999999998915
0.999999998891
0.999999999936
0.999999999932
1.00000000001
1.00000000001
1.0
1.0
1.0
1.0
1.0
0.999999999999
1.0
0.999999999977
1.00000000004
1.00000000071
0.999999999759
0.999999997794
0.99999999902
0.999999996233
1.00000002654
1.00000002729
0.999999995386
0.999999995144
1.00000000003
1.00000000003
1.00000000001
1.00000000001
1.0
1.0
1.0
1.0
1.0
1.0
0.999999999999
1.0
0.999999999994
0.999999999939
0.999999999984
0.999999998994
1.00000000355
1.00000000372
0.999999999625
0.999999999589
0.99999999999
0.999999999985
1.0
1.0
1.0
1.0
1.0
1.0
1.0
0.999999999997
1.0
0.999999999986
1.00000000003
1.00000000019
1.00000000005
1.00000000124
0.999999997157
0.999999997091
1.00000000005
1.00000000005
1.00000000002
1.00000000002
1.0
1.0
1.0
1.0
1.0
1.0
1.0
1.0
1.0
1.0
1.0
1.0
0.999999999999
1.00000000023
0.999999999794
0.999999999783
0.999999999983
0.999999999981
1.0
1.0
1.0
1.0
1.0
1.0
1.0
1.0
1.0
1.0
1.0
0.999999999999
1.0
1.0
1.0
0.999999999918
0.999999999982
0.999999999972
1.00000000001
1.00000000001
1.0
1.0
1.0
1.0
1.0
1.0
1.0
1.0
1.0
1.0
1.0
1.0
1.0
1.0
1.0
0.999999999979
1.0
1.0
1.0
1.0
1.0
1.0
1.0
1.0
1.0
1.0
1.0
1.0
1.0
1.0
1.0
1.0
1.0
1.0
1.0
0.999999999753
1.0000000009
1.00000000101
0.999999999896
0.999999999869
0.999999999998
0.999999999999
1.0
1.0
1.0
1.0
1.0
1.0
1.0
1.0
1.0
1.0
1.0
1.0
1.0
1.00000000002
0.999999999996
0.999999999993
0.999999999999
0.999999999999
1.0
1.0
1.0
1.0
1.0
1.0
1.00000000002
0.999999999998
1.0
1.0
1.00000000002
1.0
0.999999999999
0.999999999986
0.999999999994
1.00000000016
0.999999999971
0.999999999883
0.999999999976
0.999999999994
1.0
1.0
1.0
1.0
1.0
1.0
1.00000000001
0.999999999996
0.999999999988
1.0
1.00000000002
0.999999999996
1.00000000001
0.999999999999
1.00000000001
0.999999999994
0.999999999996
0.999999999998
0.999999999999
1.0
1.0
1.0
1.0
1.0
1.00000000001
0.999999999998
0.999999999972
0.99999999999
0.999999996895
0.999999999974
0.999999999967
0.999999999934
1.00000000007
0.999999999842
1.00000000017
0.999999999975
0.999999999986
0.999999999994
0.999999999999
1.0
1.0
1.0
1.0
1.0
1.00000000001
0.999999999998
0.999999999973
1.0
0.999999997283
0.999999999973
0.999999999978
0.999999999959
1.00000000013
1.00000000038
1.00000000018
0.999999999997
0.999999999999
0.999999999999
1.0
0.999999999999
1.0
1.0
1.0
1.0
0.999999999995
0.999999999991
0.999999998228
1.00000000052
1.0000000185
0.999999999478
0.999999997054
0.999999999008
1.00000000053
1.00000000541
1.00000000138
0.999999999998
0.999999999999
0.999999999999
1.0
1.0
1.0
1.0
1.0
1.0
0.999999999981
0.999999999991
0.999999998287
1.00000000049
1.00000001742
0.999999999505
0.999999997207
0.99999999955
0.999999999986
1.00000000225
1.00000000052
0.999999999999
0.999999999999
0.999999999999
0.999999999999
1.0
1.0
1.0
1.0
0.999999999999
0.999999999894
1.00000000004
1.00000000094
0.99999999969
0.999999996909
1.00000000026
1.00000000218
1.00000000246
0.999999998742
0.999999993344
0.999999997089
0.999999999976
1.00000000001
1.00000000001
1.00000000001
0.999999999987
1.0
1.0
1.0
1.0
1.0
1.0
1.0
1.0
1.0
0.999999999999
1.0
1.0
1.0
1.00000000001
1.0
0.999999999982
1.0
1.00000000001
1.00000000001
1.0
1.0
1.0
1.0
1.0
1.0
1.0
1.0
1.0
1.0
0.999999999999
1.0
0.999999999999
1.00000000001
1.00000000001
1.00000000001
0.999999999903
0.999999999893
0.999999999895
1.00000000001
1.00000000001
1.0
1.0
1.0
1.0
1.0
1.0
1.0
1.0
1.0
1.0
1.0
0.999999999999
1.0
1.00000000001
1.0
0.999999999963
0.999999999949
0.99999999995
0.999999999999
1.0
1.0
1.0
1.0
1.0
1.0
1.0
1.0
1.0
1.0
0.999999999999
1.0
1.00000000001
1.0
1.00000000001
0.999999999992
1.0000000003
0.999999999846
0.999999999858
0.99999999989
0.999999999885
1.0
1.0
1.0
1.0
1.0
1.0
1.0
1.0
1.0
1.0
1.0
1.0
1.0
1.0
0.999999999998
1.00000000011
1.00000000001
1.00000000001
0.999999999964
0.999999999963
0.999999999999
0.999999999999
1.0
1.0
1.0
1.0
1.0
1.0
1.0
1.0
0.999999999998
1.00000000004
0.999999999975
0.999999999831
0.999999999928
0.999999999608
1.00000000201
1.00000000207
0.999999999821
0.999999999807
0.999999999965
0.999999999962
1.0
1.0
1.0
1.0
1.0
1.0
1.0
1.0
1.0
0.999999999998
1.0
0.999999999999
1.0
0.999999999897
1.00000000024
1.00000000026
1.00000000001
1.00000000001
0.999999999995
0.999999999994
1.0
1.0
1.0
1.0
1.0
1.0
1.0
1.0
1.0
1.00000000001
1.0
1.0
0.999999999996
1.00000000013
0.999999999888
0.999999999885
0.999999999934
0.999999999932
1.0
1.0
1.0
1.0
1.0
1.0
1.0
1.0
1.0
1.0
1.0
1.0
1.0
0.999999999999
1.0
1.00000000003
1.0
1.0
0.999999999992
0.999999999991
0.999999999999
0.999999999999
1.0
1.0
1.0
1.0
1.0
1.0
1.0
1.0
1.0
1.0
1.0
1.0
1.0
0.999999999987
0.999999999986
0.999999999984
1.0
0.999999999999
1.0
1.0
1.0
1.0
1.0
1.0
1.0
1.0
1.0
1.0
1.0
1.0
1.0
1.0
1.0
0.999999999997
0.999999999997
0.999999999997
1.0
1.0
1.0
1.0
1.0
1.0
1.0
1.0
1.0
1.0
1.0
1.0
1.0
1.0
1.0
1.0
1.0
0.999999999972
1.00000000007
1.00000000008
1.0
0.999999999998
0.999999999999
0.999999999998
1.0
1.0
1.0
1.0
1.0
1.0
1.0
1.0
1.0
1.0
1.0
1.0
1.0
1.0
1.0
1.0
1.0
1.0
1.0
1.0
1.0
1.0
1.0
1.0
1.0
1.0
0.999999999973
1.0
1.0
0.999999999999
1.0
0.999999999999
1.0
1.00000000001
1.00000000001
0.999999999998
0.999999999997
0.999999999996
0.999999999999
1.0
1.0
1.0
1.0
1.0
1.0
1.0
0.999999999975
0.999999999999
1.0
0.999999999999
1.0
1.0
1.0
1.0
0.999999999999
0.999999999999
1.0
1.0
1.0
1.0
1.0
1.0
1.0
1.0
0.999999999949
1.00000000001
0.999999999889
0.999999999981
0.999999999926
0.999999999977
1.00000000002
1.00000000007
1.00000000005
0.999999999998
0.999999999998
0.999999999998
0.999999999999
1.0
1.0
1.0
1.0
1.0
1.0
1.0
0.999999999952
1.00000000001
0.999999999912
0.999999999983
0.999999999934
1.0
1.00000000001
1.00000000004
1.00000000002
0.999999999999
1.0
1.0
1.0
1.0
1.0
1.0
1.0
1.0
0.999999999988
1.0
0.999999999942
1.00000000002
1.0000000014
0.999999999993
0.999999999969
1.00000000009
0.999999999939
1.00000000006
0.999999999913
0.999999999999
0.999999999999
0.999999999999
1.0
1.0
1.0
1.0
1.0
1.0
0.999999999987
1.0
0.999999999943
1.00000000001
1.00000000132
0.999999999998
0.999999999964
1.00000000007
0.99999999992
0.999999999932
0.999999999908
1.0
1.0
1.0
1.0
1.0
1.0
1.0
0.999999999999
1.0
0.999999999986
1.00000000001
1.0000000001
0.999999999967
0.999999999684
1.00000000005
1.00000000022
1.00000000017
0.999999999904
0.999999999477
0.999999999761
0.999999999984
0.999999999994
0.999999999988
1.0
1.00000000002
1.0
0.999999999999
1.0
1.0
1.0
1.0
1.0
1.0
1.0
1.0
1.0
1.0
0.999999999999
0.999999999996
1.0
0.999999999989
0.999999999994
0.999999999994
1.0
1.0
1.0
0.999999999999
1.0
1.0
1.0
1.0
1.0
1.0
1.0
1.0
1.0
1.0
0.999999999994
0.999999999999
1.0
1.00000000002
0.999999999972
0.999999999978
0.999999999995
0.999999999986
1.0
1.0
1.0
1.0
1.0
1.0
1.0
1.0
1.0
1.0
1.0
1.0
1.0
1.0
1.0
1.00000000001
0.99999999999
0.999999999991
0.999999999996
0.999999999995
1.0
1.0
1.0
1.0
1.0
1.0
1.0
1.0
1.0
1.0
1.0
1.0
1.0
0.999999999986
0.999999999995
0.999999999817
1.00000000019
1.00000000019
0.999999999968
0.99999999997
0.999999999998
0.999999999998
1.0
1.0
1.0
1.0
1.0
1.0
1.0
1.0
1.0
1.0
1.0
0.999999999996
0.999999999999
0.99999999995
1.00000000004
1.00000000004
0.999999999993
0.999999999994
0.999999999999
0.999999999999
1.0
1.0
1.0
1.0
1.0
1.0
1.0
1.0
0.999999999998
0.999999999976
1.00000000001
1.00000000011
1.00000000004
1.00000000043
0.999999998817
0.99999999878
1.00000000015
1.00000000016
0.999999999988
0.999999999988
1.0
1.0
1.0
1.0
1.0
1.0
1.0
1.0
1.0
1.0
1.0
1.0
1.0
1.00000000011
0.999999999862
0.999999999853
1.00000000001
1.00000000001
0.999999999999
0.999999999999
1.0
1.0
1.0
1.0
1.0
1.0
1.0
1.0
1.0
1.0
0.999999999999
0.999999999994
0.999999999997
0.999999999907
1.00000000009
1.00000000009
0.999999999979
0.999999999978
0.999999999999
0.999999999999
1.0
1.0
1.0
1.0
1.0
1.0
1.0
1.0
1.0
1.0
1.0
1.0
1.0
0.999999999991
1.00000000001
1.00000000001
0.999999999998
0.999999999998
1.0
1.0
1.0
1.0
1.0
1.0
1.0
1.0
1.0
1.0
1.0
1.0
1.0
1.0
1.0
0.999999999996
0.999999999994
0.999999999995
0.999999999999
0.999999999998
1.0
1.0
1.0
1.0
1.0
1.0
1.0
1.0
1.0
1.0
1.0
1.0
1.0
1.0
1.0
0.999999999999
0.999999999999
0.999999999999
1.0
1.0
1.0
1.0
1.0
1.0
1.0
1.0
1.0
1.0
1.0
1.0
1.0
1.0
1.0
1.0
1.0
1.00000000003
0.999999999963
0.999999999959
1.0
1.0
1.0
0.999999999999
1.0
1.0
1.0
1.0
1.0
1.0
1.0
1.0
1.0
1.0
1.0
1.0
1.0
1.0
1.0
1.0
1.0
1.0
1.0
1.0
1.0
1.0
1.0
1.0
0.999999999999
1.0
0.999999999992
0.999999999999
0.999999999998
0.999999999999
1.0
1.0
1.0
0.99999999999
0.999999999998
1.0
1.0
0.999999999999
1.0
1.0
1.0
1.0
1.0
1.0
0.999999999999
1.0
0.999999999993
1.0
0.999999999998
1.0
1.0
1.0
1.0
1.0
1.0
1.0
1.0
1.0
1.0
1.0
1.0
1.0
0.999999999999
1.0
0.999999999986
1.0
1.0000000001
0.999999999996
0.999999999984
0.999999999999
1.0
1.00000000002
1.0
1.0
0.999999999999
0.999999999999
1.0
1.0
1.0
1.0
1.0
1.0
0.999999999999
1.0
0.999999999987
1.0
1.00000000008
0.999999999997
0.999999999984
1.0
0.999999999996
0.999999999993
0.999999999999
1.0
1.0
1.0
1.0
1.0
1.0
1.0
1.0
1.0
0.999999999996
1.0
1.00000000005
0.999999999983
0.999999999184
1.00000000002
1.00000000011
1.00000000005
0.99999999997
0.999999999767
0.99999999994
1.0
1.0
1.0
1.0
1.0
1.0
1.0
1.0
1.0
0.999999999997
1.0
1.00000000005
0.999999999984
0.999999999238
1.00000000002
1.0000000001
1.00000000003
0.999999999994
0.999999999915
0.999999999976
1.0
1.0
1.0
1.0
1.0
1.0
1.0
1.0
1.0
0.999999999999
1.0
0.999999999934
1.00000000002
1.00000000034
0.999999999989
0.999999999886
0.999999999901
1.00000000005
1.00000000034
1.00000000012
0.999999999992
0.999999999995
0.999999999995
0.999999999999
1.00000000001
1.0
1.0
1.0
1.0
1.0
1.0
1.0
1.0
1.0
1.0
1.0
1.0
1.0
1.0
1.0
0.999999999994
0.999999999996
0.999999999996
0.999999999999
1.0
1.0
1.0
1.0
1.0
0.999999999999
1.0
1.0
1.0
1.0
1.0
1.0
1.0
0.999999999999
1.0
1.0
0.999999999993
0.999999999993
0.999999999994
0.999999999996
0.999999999996
1.0
1.0
1.0
1.0
1.0
1.0
1.0
1.0
1.0
1.0
1.0
1.0
1.0
1.0
1.0
0.999999999996
0.999999999997
0.999999999997
0.999999999998
0.999999999998
1.0
1.0
1.0
1.0
1.0
1.0
1.0
1.0
1.0
1.0
1.0
1.0
1.0
1.0
0.999999999999
0.999999999943
1.0
1.0
0.999999999992
0.999999999992
0.999999999998
0.999999999998
1.0
1.0
1.0
1.0
1.0
1.0
1.0
1.0
1.0
1.0
1.0
1.0
1.0
0.999999999991
0.999999999999
0.999999999999
0.999999999998
0.999999999998
0.999999999999
1.0
1.0
1.0
1.0
1.0
1.0
1.0
1.0
1.0
1.0
1.0
1.0
1.00000000002
1.0
1.00000000023
0.999999999784
0.999999999774
1.0
0.999999999998
0.999999999996
0.999999999996
1.0
1.0
1.0
1.0
1.0
1.0
1.0
1.0
1.0
1.0
1.0
1.0
1.0
1.00000000006
0.999999999988
0.999999999985
1.0
1.0
1.0
0.999999999999
1.0
1.0
1.0
1.0
1.0
1.0
1.0
1.0
1.0
1.0
1.0
1.0
0.999999999999
0.99999999997
0.999999999998
0.999999999998
0.999999999993
0.999999999993
0.999999999999
0.999999999999
1.0
1.0
1.0
1.0
1.0
1.0
1.0
1.0
1.0
1.0
1.0
1.0
1.0
1.0
1.0
1.0
0.999999999999
0.999999999999
1.0
1.0
1.0
1.0
1.0
1.0
1.0
1.0
1.0
1.0
1.0
1.0
1.0
1.0
1.0
0.999999999997
0.999999999997
0.999999999997
0.999999999999
0.999999999999
1.0
1.0
1.0
1.0
1.0
1.0
1.0
1.0
1.0
1.0
1.0
1.0
1.0
1.0
1.0
1.0
1.0
1.0
1.0
1.0
1.0
1.0
1.0
1.0
1.0
1.0
1.0
1.0
1.0
1.0
1.0
1.0
1.0
1.0
1.0
1.00000000002
0.999999999997
0.999999999995
0.999999999999
1.0
1.0
1.0
1.0
1.0
1.0
1.0
1.0
1.0
1.0
1.0
1.0
1.0
1.0
1.0
1.0
1.0
1.0
1.0
1.0
1.0
1.0
1.0
1.0
1.0
1.0
1.0
0.999999999999
1.0
0.999999999997
1.0
0.999999999999
1.0
1.0
1.0
1.0
0.999999999998
0.999999999998
0.999999999999
0.999999999999
0.999999999999
1.0
1.0
1.0
1.0
1.0
1.0
0.999999999999
1.0
0.999999999997
1.0
0.999999999998
0.999999999999
0.999999999999
1.0
1.0
1.0
1.0
1.0
1.0
1.0
1.0
1.0
1.0
1.0
0.999999999999
1.0
0.999999999995
1.0
0.999999999997
0.999999999999
0.999999999995
1.0
0.999999999999
1.0
1.0
0.999999999999
0.999999999999
0.999999999999
1.0
1.0
1.0
1.0
1.0
1.0
0.999999999999
1.0
0.999999999995
1.0
0.999999999998
0.999999999999
0.999999999995
1.0
0.999999999999
1.0
1.0
1.0
1.0
1.0
1.0
1.0
1.0
1.0
1.0
1.0
0.999999999998
1.0
0.999999999997
1.0
0.999999999858
1.0
1.0
1.0
0.999999999997
0.999999999982
0.999999999998
1.0
1.0
1.0
1.0
1.0
1.0
1.0
1.0
1.0
0.999999999998
1.0
0.999999999997
1.0
0.999999999872
1.0
1.0
1.0
0.999999999999
1.00000000001
0.999999999998
1.0
1.0
1.0
1.0
1.0
1.0
1.0
1.0
1.0
0.999999999998
1.0
0.99999999998
1.00000000001
1.00000000018
0.999999999998
0.999999999974
0.999999999987
1.0
1.00000000008
1.00000000001
0.999999999995
0.999999999997
0.999999999997
0.999999999999
1.0
1.0
1.0
1.0
1.0
0.999999999999
1.0
1.0
1.0
1.0
1.0
1.0
1.0
1.0
1.0
1.0
0.999999999997
0.999999999998
0.999999999998
0.999999999999
1.0
1.0
1.0
1.0
1.0
0.999999999999
1.0
1.0
1.0
1.0
1.0
1.0
1.0
1.0
1.0
1.0
0.999999999994
0.999999999996
0.999999999996
0.999999999998
0.999999999999
1.0
1.0
1.0
1.0
0.999999999999
1.0
1.0
1.0
1.0
1.0
1.0
1.0
1.0
1.0
1.0
0.999999999999
0.999999999999
0.999999999999
0.999999999999
0.999999999999
1.0
1.0
1.0
1.0
0.999999999999
1.0
1.0
1.0
1.0
1.0
1.0
1.0
1.0
1.0
1.0
1.0
0.999999999992
0.999999999991
0.999999999996
0.999999999996
0.999999999999
0.999999999999
1.0
1.0
1.0
1.0
1.0
1.0
1.0
1.0
1.0
1.0
1.0
1.0
1.0
1.00000000001
1.0
1.0
0.999999999999
0.999999999999
1.0
1.0
1.0
1.0
1.0
1.0
1.0
1.0
1.0
1.0
1.0
1.0
0.999999999998
0.999999999999
0.999999999996
1.00000000008
1.00000000003
1.00000000003
0.999999999993
0.999999999991
0.999999999998
0.999999999998
1.0
1.0
1.0
1.0
1.0
1.0
1.0
1.0
1.0
1.0
1.0
1.0
1.0
1.00000000002
1.00000000001
1.00000000001
1.0
1.0
1.0
1.0
1.0
1.0
1.0
1.0
1.0
1.0
1.0
1.0
1.0
1.0
0.999999999999
1.0
0.999999999999
1.0
0.999999999995
0.999999999995
0.999999999996
0.999999999996
0.999999999999
0.999999999999
1.0
1.0
1.0
1.0
1.0
1.0
1.0
1.0
1.0
1.0
1.0
1.0
1.0
1.0
1.0
1.0
1.0
1.0
1.0
1.0
1.0
1.0
1.0
1.0
1.0
1.0
1.0
1.0
1.0
1.0
1.0
1.0
1.0
1.0
1.0
0.999999999999
0.999999999999
0.999999999999
1.0
1.0
1.0
1.0
1.0
1.0
1.0
1.0
1.0
1.0
1.0
1.0
1.0
1.0
1.0
1.0
1.0
1.0
1.0
1.0
1.0
1.0
1.0
1.0
1.0
1.0
1.0
1.0
1.0
1.0
1.0
1.0
1.0
1.0
1.0
1.00000000001
1.0
1.0
1.0
1.0
1.0
1.0
1.0
1.0
1.0
1.0
1.0
1.0
1.0
1.0
1.0
1.0
1.0
1.0
1.0
1.0
1.0
1.0
1.0
1.0
1.0
1.0
1.0
1.0
1.0
1.0
1.0
1.0
0.999999999999
1.0
1.0
1.0
1.0
1.0
1.0
1.0
1.0
1.0
1.0
1.0
1.0
1.0
1.0
1.0
1.0
1.0
1.0
1.0
0.999999999999
1.0
0.999999999999
1.0
1.0
1.0
1.0
1.0
1.0
1.0
1.0
1.0
1.0
1.0
1.0
1.0
1.0
1.0
0.999999999997
1.0
0.999999999995
1.0
0.999999999999
1.0
1.0
1.0
1.0
1.0
1.0
1.0
1.0
1.0
1.0
1.0
1.0
1.0
1.0
1.0
0.999999999998
1.0
0.999999999998
1.0
0.999999999998
1.0
0.999999999999
1.0
0.999999999999
1.0
1.0
1.0
1.0
1.0
1.0
1.0
1.0
1.0
0.999999999999
1.0
0.999999999998
1.0
1.00000000003
1.0
0.999999999999
1.0
0.999999999999
1.00000000001
0.999999999998
1.0
1.0
1.0
1.0
1.0
1.0
1.0
1.0
1.0
0.999999999999
1.0
0.999999999998
1.0
1.00000000003
1.0
0.999999999999
1.0
0.999999999998
1.0
0.999999999996
0.999999999999
1.0
1.0
1.0
1.0
1.0
1.0
1.0
1.0
0.999999999999
1.0
1.0
1.0
1.00000000006
1.0
1.00000000001
1.00000000001
0.999999999996
1.0
0.999999999991
0.999999999997
0.999999999998
0.999999999998
0.999999999999
1.0