# vtk DataFile Version 2.0
16001 -th Step
ASCII
DATASET UNSTRUCTURED_GRID
POINTS 9261 float
0.0 0.0 0.0
1.0 0.0 0.0
0.0 1.0 0.0
1.0 1.0 0.0
1.0 1.0 1.0
1.0 0.0 1.0
0.0 1.0 1.0
0.0 0.0 1.0
0.0 1.0 0.0213167761802
0.0 1.0 0.0478256198006
0.0 1.0 0.0803927314655
0.0 1.0 0.119810228776
0.0 1.0 0.166666670984
0.0 1.0 0.221186998955
0.0 1.0 0.283067740058
0.0 1.0 0.35135249059
0.0 1.0 0.424401951113
0.0 1.0 0.499999999998
0.0 1.0 0.575598048883
0.0 1.0 0.648647509407
0.0 1.0 0.71693225994
0.0 1.0 0.778813001043
0.0 1.0 0.833333329015
0.0 1.0 0.880189771223
0.0 1.0 0.919607268534
0.0 1.0 0.952174380199
0.0 1.0 0.97868322382
0.0213167761802 1.0 1.0
0.0478256198006 1.0 1.0
0.0803927314655 1.0 1.0
0.119810228776 1.0 1.0
0.166666670984 1.0 1.0
0.221186998955 1.0 1.0
0.283067740058 1.0 1.0
0.35135249059 1.0 1.0
0.424401951113 1.0 1.0
0.499999999998 1.0 1.0
0.575598048883 1.0 1.0
0.648647509407 1.0 1.0
0.71693225994 1.0 1.0
0.778813001043 1.0 1.0
0.833333329015 1.0 1.0
0.880189771223 1.0 1.0
0.919607268534 1.0 1.0
0.952174380199 1.0 1.0
0.97868322382 1.0 1.0
1.0 1.0 0.97868322382
1.0 1.0 0.952174380199
1.0 1.0 0.919607268534
1.0 1.0 0.880189771223
1.0 1.0 0.833333329015
1.0 1.0 0.778813001044
1.0 1.0 0.716932259942
1.0 1.0 0.64864750941
1.0 1.0 0.575598048887
1.0 1.0 0.500000000002
1.0 1.0 0.424401951117
1.0 1.0 0.351352490593
1.0 1.0 0.28306774006
1.0 1.0 0.221186998957
1.0 1.0 0.166666670985
1.0 1.0 0.119810228777
1.0 1.0 0.080392731466
1.0 1.0 0.047825619801
1.0 1.0 0.0213167761803
0.97868322382 1.0 0.0
0.952174380199 1.0 0.0
0.919607268534 1.0 0.0
0.880189771223 1.0 0.0
0.833333329015 1.0 0.0
0.778813001044 1.0 0.0
0.716932259942 1.0 0.0
0.64864750941 1.0 0.0
0.575598048887 1.0 0.0
0.500000000002 1.0 0.0
0.424401951117 1.0 0.0
0.351352490593 1.0 0.0
0.28306774006 1.0 0.0
0.221186998957 1.0 0.0
0.166666670985 1.0 0.0
0.119810228777 1.0 0.0
0.080392731466 1.0 0.0
0.047825619801 1.0 0.0
0.0213167761803 1.0 0.0
0.0 0.97868322382 0.0
0.0 0.952174380199 0.0
0.0 0.919607268534 0.0
0.0 0.880189771223 0.0
0.0 0.833333329015 0.0
0.0 0.778813001044 0.0
0.0 0.716932259942 0.0
0.0 0.64864750941 0.0
0.0 0.575598048887 0.0
0.0 0.500000000002 0.0
0.0 0.424401951117 0.0
0.0 0.351352490593 0.0
0.0 0.28306774006 0.0
0.0 0.221186998957 0.0
0.0 0.166666670985 0.0
0.0 0.119810228777 0.0
0.0 0.080392731466 0.0
0.0 0.047825619801 0.0
0.0 0.0213167761803 0.0
1.0 0.0213167761802 0.0
1.0 0.0478256198006 0.0
1.0 0.0803927314655 0.0
1.0 0.119810228776 0.0
1.0 0.166666670984 0.0
1.0 0.221186998955 0.0
1.0 0.283067740058 0.0
1.0 0.35135249059 0.0
1.0 0.424401951113 0.0
1.0 0.499999999998 0.0
1.0 0.575598048883 0.0
1.0 0.648647509407 0.0
1.0 0.71693225994 0.0
1.0 0.778813001043 0.0
1.0 0.833333329015 0.0
1.0 0.880189771223 0.0
1.0 0.919607268534 0.0
1.0 0.952174380199 0.0
1.0 0.97868322382 0.0
1.0 0.0 0.0213167761802
1.0 0.0 0.0478256198006
1.0 0.0 0.0803927314655
1.0 0.0 0.119810228776
1.0 0.0 0.166666670984
1.0 0.0 0.221186998955
1.0 0.0 0.283067740058
1.0 0.0 0.35135249059
1.0 0.0 0.424401951113
1.0 0.0 0.499999999998
1.0 0.0 0.575598048883
1.0 0.0 0.648647509407
1.0 0.0 0.71693225994
1.0 0.0 0.778813001043
1.0 0.0 0.833333329015
1.0 0.0 0.880189771223
1.0 0.0 0.919607268534
1.0 0.0 0.952174380199
1.0 0.0 0.97868322382
0.97868322382 0.0 1.0
0.952174380199 0.0 1.0
0.919607268534 0.0 1.0
0.880189771223 0.0 1.0
0.833333329015 0.0 1.0
0.778813001044 0.0 1.0
0.716932259942 0.0 1.0
0.64864750941 0.0 1.0
0.575598048887 0.0 1.0
0.500000000002 0.0 1.0
0.424401951117 0.0 1.0
0.351352490593 0.0 1.0
0.28306774006 0.0 1.0
0.221186998957 0.0 1.0
0.166666670985 0.0 1.0
0.119810228777 0.0 1.0
0.080392731466 0.0 1.0
0.047825619801 0.0 1.0
0.0213167761803 0.0 1.0
0.0 0.0 0.97868322382
0.0 0.0 0.952174380199
0.0 0.0 0.919607268534
0.0 0.0 0.880189771223
0.0 0.0 0.833333329015
0.0 0.0 0.778813001044
0.0 0.0 0.716932259942
0.0 0.0 0.64864750941
0.0 0.0 0.575598048887
0.0 0.0 0.500000000002
0.0 0.0 0.424401951117
0.0 0.0 0.351352490593
0.0 0.0 0.28306774006
0.0 0.0 0.221186998957
0.0 0.0 0.166666670985
0.0 0.0 0.119810228777
0.0 0.0 0.080392731466
0.0 0.0 0.047825619801
0.0 0.0 0.0213167761803
0.0213167761802 0.0 0.0
0.0478256198006 0.0 0.0
0.0803927314655 0.0 0.0
0.119810228776 0.0 0.0
0.166666670984 0.0 0.0
0.221186998955 0.0 0.0
0.283067740058 0.0 0.0
0.35135249059 0.0 0.0
0.424401951113 0.0 0.0
0.499999999998 0.0 0.0
0.575598048883 0.0 0.0
0.648647509407 0.0 0.0
0.71693225994 0.0 0.0
0.778813001043 0.0 0.0
0.833333329015 0.0 0.0
0.880189771223 0.0 0.0
0.919607268534 0.0 0.0
0.952174380199 0.0 0.0
0.97868322382 0.0 0.0
0.0 0.0213167761802 1.0
0.0 0.0478256198006 1.0
0.0 0.0803927314655 1.0
0.0 0.119810228776 1.0
0.0 0.166666670984 1.0
0.0 0.221186998955 1.0
0.0 0.283067740058 1.0
0.0 0.35135249059 1.0
0.0 0.424401951113 1.0
0.0 0.499999999998 1.0
0.0 0.575598048883 1.0
0.0 0.648647509407 1.0
0.0 0.71693225994 1.0
0.0 0.778813001043 1.0
0.0 0.833333329015 1.0
0.0 0.880189771223 1.0
0.0 0.919607268534 1.0
0.0 0.952174380199 1.0
0.0 0.97868322382 1.0
1.0 0.0213167761802 1.0
1.0 0.0478256198006 1.0
1.0 0.0803927314655 1.0
1.0 0.119810228776 1.0
1.0 0.166666670984 1.0
1.0 0.221186998955 1.0
1.0 0.283067740058 1.0
1.0 0.35135249059 1.0
1.0 0.424401951113 1.0
1.0 0.499999999998 1.0
1.0 0.575598048883 1.0
1.0 0.648647509407 1.0
1.0 0.71693225994 1.0
1.0 0.778813001043 1.0
1.0 0.833333329015 1.0
1.0 0.880189771223 1.0
1.0 0.919607268534 1.0
1.0 0.952174380199 1.0
1.0 0.97868322382 1.0
0.97868322382 0.0 0.0213167761802
0.952174380199 0.0 0.0213167761802
0.919607268534 0.0 0.0213167761802
0.880189771223 0.0 0.0213167761802
0.833333329015 0.0 0.0213167761802
0.778813001043 0.0 0.0213167761802
0.71693225994 0.0 0.0213167761802
0.648647509407 0.0 0.0213167761802
0.575598048883 0.0 0.0213167761802
0.499999999998 0.0 0.0213167761802
0.424401951114 0.0 0.0213167761803
0.35135249059 0.0 0.0213167761803
0.283067740058 0.0 0.0213167761803
0.221186998955 0.0 0.0213167761803
0.166666670984 0.0 0.0213167761803
0.119810228776 0.0 0.0213167761803
0.0803927314655 0.0 0.0213167761803
0.0478256198006 0.0 0.0213167761803
0.0213167761802 0.0 0.0213167761803
0.97868322382 0.0 0.0478256198006
0.952174380199 0.0 0.0478256198007
0.919607268534 0.0 0.0478256198007
0.880189771223 0.0 0.0478256198007
0.833333329015 0.0 0.0478256198007
0.778813001043 0.0 0.0478256198007
0.71693225994 0.0 0.0478256198007
0.648647509407 0.0 0.0478256198008
0.575598048883 0.0 0.0478256198008
0.499999999998 0.0 0.0478256198008
0.424401951114 0.0 0.0478256198008
0.35135249059 0.0 0.0478256198008
0.283067740058 0.0 0.0478256198009
0.221186998955 0.0 0.0478256198009
0.166666670984 0.0 0.0478256198009
0.119810228776 0.0 0.0478256198009
0.0803927314655 0.0 0.0478256198009
0.0478256198007 0.0 0.0478256198009
0.0213167761802 0.0 0.0478256198009
0.97868322382 0.0 0.0803927314655
0.952174380199 0.0 0.0803927314655
0.919607268534 0.0 0.0803927314655
0.880189771223 0.0 0.0803927314655
0.833333329015 0.0 0.0803927314656
0.778813001043 0.0 0.0803927314656
0.71693225994 0.0 0.0803927314656
0.648647509407 0.0 0.0803927314657
0.575598048883 0.0 0.0803927314657
0.499999999998 0.0 0.0803927314657
0.424401951114 0.0 0.0803927314658
0.35135249059 0.0 0.0803927314658
0.283067740058 0.0 0.0803927314659
0.221186998955 0.0 0.0803927314659
0.166666670984 0.0 0.0803927314659
0.119810228776 0.0 0.080392731466
0.0803927314655 0.0 0.080392731466
0.0478256198007 0.0 0.080392731466
0.0213167761802 0.0 0.080392731466
0.97868322382 0.0 0.119810228776
0.952174380199 0.0 0.119810228776
0.919607268534 0.0 0.119810228776
0.880189771223 0.0 0.119810228776
0.833333329015 0.0 0.119810228776
0.778813001043 0.0 0.119810228777
0.71693225994 0.0 0.119810228777
0.648647509408 0.0 0.119810228777
0.575598048884 0.0 0.119810228777
0.499999999999 0.0 0.119810228777
0.424401951114 0.0 0.119810228777
0.35135249059 0.0 0.119810228777
0.283067740058 0.0 0.119810228777
0.221186998955 0.0 0.119810228777
0.166666670984 0.0 0.119810228777
0.119810228776 0.0 0.119810228777
0.0803927314655 0.0 0.119810228777
0.0478256198007 0.0 0.119810228777
0.0213167761802 0.0 0.119810228777
0.97868322382 0.0 0.166666670984
0.952174380199 0.0 0.166666670984
0.919607268534 0.0 0.166666670984
0.880189771223 0.0 0.166666670984
0.833333329015 0.0 0.166666670984
0.778813001043 0.0 0.166666670984
0.71693225994 0.0 0.166666670985
0.648647509408 0.0 0.166666670985
0.575598048884 0.0 0.166666670985
0.499999999999 0.0 0.166666670985
0.424401951114 0.0 0.166666670985
0.35135249059 0.0 0.166666670985
0.283067740058 0.0 0.166666670985
0.221186998955 0.0 0.166666670985
0.166666670984 0.0 0.166666670985
0.119810228776 0.0 0.166666670985
0.0803927314656 0.0 0.166666670985
0.0478256198007 0.0 0.166666670985
0.0213167761802 0.0 0.166666670985
0.97868322382 0.0 0.221186998955
0.952174380199 0.0 0.221186998955
0.919607268534 0.0 0.221186998955
0.880189771223 0.0 0.221186998955
0.833333329015 0.0 0.221186998955
0.778813001043 0.0 0.221186998955
0.71693225994 0.0 0.221186998956
0.648647509408 0.0 0.221186998956
0.575598048884 0.0 0.221186998956
0.499999999999 0.0 0.221186998956
0.424401951114 0.0 0.221186998956
0.351352490591 0.0 0.221186998956
0.283067740058 0.0 0.221186998956
0.221186998955 0.0 0.221186998957
0.166666670984 0.0 0.221186998957
0.119810228777 0.0 0.221186998957
0.0803927314656 0.0 0.221186998957
0.0478256198007 0.0 0.221186998957
0.0213167761802 0.0 0.221186998957
0.97868322382 0.0 0.283067740058
0.952174380199 0.0 0.283067740058
0.919607268534 0.0 0.283067740058
0.880189771223 0.0 0.283067740058
0.833333329015 0.0 0.283067740058
0.778813001044 0.0 0.283067740058
0.71693225994 0.0 0.283067740059
0.648647509408 0.0 0.283067740059
0.575598048884 0.0 0.283067740059
0.499999999999 0.0 0.283067740059
0.424401951115 0.0 0.283067740059
0.351352490591 0.0 0.28306774006
0.283067740059 0.0 0.28306774006
0.221186998956 0.0 0.28306774006
0.166666670985 0.0 0.28306774006
0.119810228777 0.0 0.28306774006
0.0803927314656 0.0 0.28306774006
0.0478256198007 0.0 0.28306774006
0.0213167761802 0.0 0.28306774006
[...]
CELL_DATA 8000
SCALARS Density float 1
LOOKUP_TABLE default
1.00000000343
1.00000000044
1.00000000244
1.00000000033
0.999999997888
0.999999999816
1.00000000045
1.00000000002
0.999999999968
1.00000000002
1.0
1.0
1.0
0.999999999982
1.00000000001
1.00000000002
0.999999999664
1.00000000073
1.00000000123
1.00000000028
1.0000000023
1.00000000101
1.00000000088
0.999999999917
1.00000000047
0.999999999983
0.999999999996
1.0
0.999999999986
1.00000000006
1.0
0.99999999999
1.0
0.999999999997
1.00000000002
0.999999999676
0.999999999796
1.00000000214
1.00000000034
0.999999999452
0.999999986931
1.00000001002
1.0000000079
1.00000000067
1.00000000381
1.00000000003
0.999999999599
1.0
0.999999999997
0.999999999977
1.0
1.0
1.0
1.0
1.00000000001
0.999999999927
0.999999999986
1.00000000004
0.999999999253
0.999999999851
0.99999999344
1.00000000314
1.00000000282
1.00000000052
1.00000000107
0.999999999999
0.999999999894
1.0
1.0
0.999999999977
1.0
1.0
1.0
0.999999999997
0.999999999979
0.999999999961
0.999999998573
1.00000000032
1.00000000616
1.00000000252
1.00000002067
0.999999913958
0.999999915063
1.0000000102
1.00000000918
1.00000000028
1.0000000004
0.999999999987
0.999999999986
1.00000000001
1.0
0.999999999999
1.0
0.999999999999
0.999999999993
0.999999999984
0.999999999669
1.00000000022
1.00000000173
1.0000000006
1.00000000834
0.999999978646
0.999999978226
1.0000000014
1.00000000141
1.00000000013
1.00000000015
0.999999999999
0.999999999998
1.0
1.0
0.999999999999
1.0
0.999999999986
0.999999999214
1.00000000094
1.00000001024
0.99999999782
0.999999975725
0.999999988418
0.999999977225
1.00000029865
1.00000030668
0.999999928919
0.999999925582
1.00000000311
1.0000000033
1.00000000005
1.00000000006
0.999999999998
0.999999999998
1.0
1.0
1.0
1.0
1.0
1.00000000023
0.99999999988
0.999999998952
0.999999999593
0.999999993648
1.00000004296
1.00000004487
0.999999992256
0.999999991594
1.00000000013
1.00000000013
1.00000000001
1.00000000001
1.0
1.0
1.0
1.0
0.999999999996
0.999999999991
0.999999999978
0.999999999227
1.00000000045
1.00000000314
1.00000000124
1.00000000779
0.999999956043
0.99999995505
1.00000000561
1.00000000585
1.00000000018
1.00000000021
0.999999999992
0.999999999991
1.0
1.0
1.0
1.0
1.0
1.0
1.0
1.0
1.0
1.00000000003
1.0
1.00000000159
0.999999995888
0.999999995713
1.0000000002
1.00000000022
1.00000000002
1.00000000003
1.0
1.0
1.0
1.0
1.0
1.0
0.999999999999
1.0
0.999999999998
0.999999999991
0.999999999991
0.99999999994
1.00000000001
0.999999999176
1.00000000059
1.00000000048
1.00000000016
1.00000000018
0.999999999993
0.999999999998
1.0
0.999999999999
1.0
1.0
1.0
1.0
1.0
1.0
1.0
1.0
1.0
1.0
1.0
0.999999999773
1.00000000016
1.00000000017
1.00000000001
1.00000000001
1.0
1.0
1.0
1.0
1.0
1.0
0.999999999995
1.0
1.00000000004
0.999999999999
0.999999999993
1.0
0.999999999998
1.0
0.999999999996
0.999999998483
1.00000001
1.00000001125
0.999999998087
0.999999997648
1.00000000005
1.00000000007
1.0
1.0
1.0
1.0
0.999999999996
1.0
1.00000000004
1.0
0.999999999995
1.0
0.999999999995
0.999999999991
0.999999999992
1.00000000016
0.999999999836
0.999999999782
0.999999999999
1.00000000001
1.0
1.0
1.0
1.0
0.999999999993
1.0
1.00000000018
0.999999999977
1.00000000199
1.00000000007
1.00000000025
1.00000000008
0.999999999916
0.999999999894
0.999999999778
1.00000000132
0.999999998855
0.999999997842
0.999999999804
1.00000000013
1.00000000002
1.00000000001
1.0
1.0
0.999999999992
1.0
1.00000000017
0.999999999955
1.00000000153
1.00000000005
1.00000000021
0.999999999964
0.999999999935
0.999999999607
0.999999999944
0.9999999999
0.99999999997
1.00000000001
1.00000000001
1.00000000001
1.0
1.0
0.999999999997
1.0
1.00000000014
0.999999999982
1.00000000313
0.999999999075
0.999999951134
1.00000000083
1.00000000485
1.00000000059
0.999999999844
0.999999991771
0.999999999382
0.999999999632
0.999999999905
1.00000000008
1.00000000004
1.00000000002
1.0
1.0
0.999999999996
1.0
1.00000000019
0.999999999976
1.00000000287
0.999999999238
0.999999956293
1.00000000066
1.00000000442
0.999999999185
1.00000000194
1.00000000389
1.00000000211
0.999999999992
1.00000000001
1.00000000001
1.0
0.999999999997
1.0
1.0
1.00000000002
1.0
1.00000000078
0.999999999586
0.999999971251
1.00000000825
1.00000020822
0.999999990706
0.999999948003
0.999999974896
1.0000000147
1.00000009246
1.00000003309
1.00000000003
1.00000000002
1.00000000001
1.0
1.0
1.0
1.0
1.00000000003
1.0
1.00000000061
0.999999999593
0.99999997234
1.00000000786
1.00000019642
0.999999990798
0.999999951203
0.99999998637
1.00000000655
1.0000000472
1.00000001794
1.0
0.999999999996
0.999999999998
0.999999999998
1.0
1.0
1.0
1.00000000006
0.999999999981
0.999999999018
1.00000000037
1.00000000608
0.999999997845
0.999999979898
1.00000000047
1.0000000186
1.00000002989
0.999999985531
0.999999928349
0.999999969078
1.00000000137
1.00000000062
1.00000000165
1.00000000028
0.99999999885
0.999999999909
1.00000000027
1.00000000001
0.999999999985
1.0
1.0
1.0
1.0
0.99999999999
1.0
1.00000000005
0.999999999843
1.00000000032
1.00000000067
1.00000000019
1.00000000087
1.0000000007
1.00000000071
1.00000000007
1.00000000027
0.999999999984
1.00000000004
1.0
0.999999999991
1.00000000003
1.0
0.999999999995
1.0
0.999999999995
1.0
0.99999999989
0.999999999857
1.0000000011
1.00000000041
0.999999999854
0.999999992509
1.00000000249
1.0000000016
1.00000000068
1.00000000222
1.00000000003
0.999999999877
1.0
0.999999999995
0.999999999982
1.0
1.0
1.0
0.999999999999
1.0
0.999999999972
0.999999999952
1.00000000003
0.999999999772
1.00000000001
0.999999996424
1.0000000004
1.00000000027
1.00000000034
1.00000000063
1.00000000001
0.999999999968
1.0
0.999999999999
0.999999999988
1.0
1.0
1.0
0.999999999999
0.999999999962
1.0
0.999999999574
1.0000000002
1.00000000287
1.000000001
1.00000001451
0.999999958469
0.99999995917
1.00000000282
1.00000000228
1.00000000028
1.00000000033
0.999999999999
0.999999999999
1.00000000001
1.0
1.0
1.0
1.0
0.999999999991
1.0
0.999999999918
1.00000000011
1.00000000076
1.00000000022
1.0000000056
0.999999990534
0.999999990335
1.0
0.99999999999
1.00000000008
1.00000000009
1.0
1.0
1.0
1.0
1.0
0.999999999994
1.00000000001
0.999999999711
1.00000000042
1.00000000524
0.999999998613
0.999999986112
0.999999993551
0.999999982833
1.00000016976
1.00000017444
0.999999964501
0.999999962743
1.00000000092
1.00000000096
1.00000000005
1.00000000006
1.0
1.0
1.0
1.0
1.0
1.00000000001
0.999999999995
1.00000000007
0.999999999944
0.999999999513
0.999999999835
0.999999995304
1.0000000236
1.0000000247
0.999999996575
0.999999996258
0.999999999979
0.999999999963
1.0
1.00000000001
1.0
1.0
1.0
1.0
0.999999999998
0.999999999979
1.00000000001
0.999999999762
1.00000000023
1.0000000015
1.00000000051
1.00000000582
0.999999978218
0.999999977722
1.00000000158
1.00000000166
1.00000000018
1.0000000002
1.0
1.0
1.0
1.0
1.0
1.0
1.0
1.0
1.0
1.0
0.999999999999
1.00000000001
0.999999999995
1.00000000113
0.999999998152
0.999999998069
0.99999999996
0.99999999996
1.00000000001
1.00000000002
1.0
1.0
1.0
1.0
1.0
1.0
1.0
1.0
1.0
0.999999999991
1.0
0.999999999991
1.00000000001
0.999999999477
1.00000000006
0.999999999993
1.0000000001
1.00000000011
1.0
1.00000000001
1.0
1.0
1.0
1.0
1.0
1.0
1.0
1.0
1.0
1.0
1.0
1.0
1.0
0.999999999862
1.00000000003
1.00000000004
1.00000000001
1.00000000001
1.0
1.0
1.0
1.0
1.0
1.0
1.0
1.0
1.00000000004
1.0
1.0
1.0
0.999999999998
0.999999999999
0.999999999996
0.999999998878
1.00000000574
1.00000000646
0.999999999096
0.999999998881
1.0
1.00000000001
1.0
1.0
1.0
1.0
1.0
1.0
1.00000000003
1.0
1.0
1.0
0.999999999998
0.999999999994
0.999999999997
1.0000000001
0.999999999943
0.999999999918
0.999999999995
0.999999999995
1.0
1.0
1.0
1.0
1.0
1.0
1.00000000014
0.999999999979
1.00000000053
1.00000000004
1.00000000019
1.00000000003
0.999999999967
0.99999999988
0.999999999892
1.00000000087
0.999999999563
0.999999998999
0.999999999849
0.999999999999
1.00000000001
1.00000000001
1.0
1.0
1.0
1.0
1.00000000013
0.999999999967
1.00000000034
1.00000000003
1.00000000016
0.999999999964
1.00000000002
0.999999999903
1.00000000003
0.99999999995
0.999999999975
0.99999999999
1.0
1.0
1.0
1.0
1.0
1.0
1.0000000001
0.999999999978
1.00000000066
0.99999999975
0.999999975771
1.00000000007
1.00000000092
0.999999999698
1.00000000037
0.999999997686
1.00000000073
0.999999999806
0.999999999916
0.999999999991
1.00000000001
1.00000000001
1.0
1.0
1.0
1.0
1.00000000012
0.999999999976
1.0000000006
0.999999999828
0.99999997851
1.0
1.00000000089
0.999999999583
1.00000000113
1.00000000259
1.00000000136
0.999999999986
0.999999999999
1.0
1.0
0.999999999998
1.0
1.0
1.00000000002
0.999999999998
1.00000000018
0.999999999866
0.999999986007
1.000000004
1.00000011838
0.999999995567
0.999999976002
0.999999990448
1.00000000547
1.00000004248
1.00000001342
1.0
1.0
1.0
1.0
1.0
1.0
1.0
1.00000000002
0.999999999999
1.00000000008
0.999999999867
0.999999986509
1.00000000381
1.0000001116
0.999999995727
0.999999977331
0.999999995159
1.00000000148
1.00000002
1.00000000654
0.999999999999
0.999999999996
0.999999999998
0.999999999998
1.0
1.0
1.0
1.00000000002
0.99999999999
0.999999999368
1.00000000024
1.00000000446
0.999999998453
0.999999985449
1.00000000092
1.000000012
1.00000001632
0.999999991856
0.999999958816
0.999999982071
0.999999999974
1.00000000016
1.00000000021
1.00000000008
0.999999999967
0.999999999997
1.00000000003
1.0
0.999999999999
1.0
1.0
1.0
1.0
0.999999999999
0.999999999998
1.00000000001
0.999999999995
0.999999999999
1.00000000004
1.00000000002
0.999999999966
1.0000000001
1.00000000012
1.00000000005
1.00000000005
0.999999999998
1.00000000001
1.0
0.999999999998
1.0
1.0
1.0
1.0
0.999999999998
0.999999999997
1.00000000001
0.999999999983
1.00000000006
1.00000000009
1.00000000003
0.999999999336
0.999999999358
0.999999999366
1.00000000014
1.0000000002
1.00000000001
1.00000000002
1.0
0.999999999999
1.0
1.0
1.0
1.0
0.999999999999
0.999999999999
1.0
0.999999999986
1.0
1.00000000003
1.00000000002
0.999999999721
0.999999999662
0.999999999665
1.00000000004
1.00000000005
1.00000000001
1.00000000001
1.0
1.0
1.0
1.0
1.0
0.999999999999
1.0
0.999999999989
1.00000000001
1.00000000007
1.00000000003
1.00000000008
0.999999999978
1.00000000152
0.999999998442
0.999999998507
0.999999999411
0.999999999374
1.00000000006
1.00000000006
1.0
1.0
1.0
1.0
1.0
1.0
1.0
0.999999999998
1.0
1.00000000002
1.0
1.00000000001
0.999999999987
1.00000000058
0.999999999872
0.999999999866
0.999999999768
0.999999999762
1.00000000001
1.00000000001
1.0
1.0
1.0
1.0
1.0
0.999999999997
1.00000000001
1.00000000002
1.00000000001
1.00000000029
0.999999999861
0.999999998952
0.999999999532
0.999999998211
1.0000000128
1.00000001316
0.999999998244
0.999999998131
0.999999999841
0.99999999983
1.00000000001
1.00000000001
1.0
1.0
1.0
1.0
1.0
1.0
0.999999999997
0.999999999988
0.999999999997
0.999999999987
1.0
0.999999999514
1.00000000162
1.0000000017
0.999999999945
0.999999999935
0.999999999967
0.999999999962
1.0
1.0
1.0
1.0
1.0
1.0
1.0
0.999999999993
1.00000000001
1.00000000004
1.00000000002
1.00000000006
1.0
1.0000000006
0.999999998971
0.999999998949
0.999999999683
0.999999999673
1.00000000004
1.00000000005
1.0
1.0
1.0
1.0
1.0
1.0
1.0
1.0
1.0
1.0
0.999999999999
0.999999999997
0.999999999997
1.00000000012
0.999999999957
0.999999999953
0.999999999946
0.999999999944
1.0
1.0
1.0
1.0
1.0
1.0
1.0
1.0
1.0
0.999999999999
1.0
0.999999999998
1.0
1.00000000001
1.00000000001
0.999999999926
0.999999999921
0.999999999915
1.00000000002
1.00000000001
1.0
1.0
1.0
1.0
1.0
1.0
1.0
1.0
1.0
1.0
1.0
1.0
1.0
1.0
1.0
0.999999999982
0.999999999986
0.999999999986
1.0
1.0
1.0
1.0
1.0
1.0
1.0
1.0
1.0
1.0
1.00000000001
1.0
1.0
1.0
0.999999999999
0.999999999999
0.999999999999
0.999999999883
1.00000000045
1.00000000051
0.999999999969
0.999999999955
0.999999999993
0.999999999991
1.0
1.0
1.0
1.0
1.0
0.999999999999
1.00000000001
1.0
1.0
0.999999999999
1.0
0.999999999999
1.0
1.00000000001
1.0
1.0
0.999999999998
0.999999999997
1.0
1.0
1.0
1.0
1.0
0.999999999999
1.00000000003
0.999999999995
0.999999999873
1.00000000001
1.00000000003
0.999999999996
1.0
0.999999999977
1.0
1.00000000008
1.00000000001
0.999999999967
0.999999999974
0.999999999977
0.999999999999
1.0
1.0
1.0
1.0
0.999999999999
1.00000000002
0.999999999994
0.999999999877
1.0
1.00000000003
0.999999999992
1.00000000002
1.00000000003
1.00000000003
0.999999999997
0.999999999995
0.999999999995
0.999999999999
1.0
1.0
1.0
1.0
1.0
1.00000000002
0.999999999994
0.999999999739
1.00000000006
0.999999998832
0.999999999882
0.999999999561
0.999999999805
1.00000000016
1.00000000044
1.00000000038
0.999999999985
0.999999999983
0.999999999984
0.999999999997
1.0
1.0
1.0
1.0
1.0
1.00000000002
0.999999999994
0.999999999753
1.00000000006
0.999999999007
0.999999999886
0.999999999614
0.999999999978
1.00000000011
1.00000000033
1.00000000019
0.999999999997
0.999999999999
1.0
1.0
1.0
1.0
1.0
1.0
0.999999999999
0.99999999994
1.00000000002
0.999999999393
1.00000000016
1.00000000894
0.999999999833
0.999999999418
1.00000000044
0.999999999716
1.00000000084
0.999999999765
0.999999999995
0.999999999998
0.999999999999
1.0
1.0
1.0
1.0
1.0
0.999999999999
0.999999999935
1.00000000001
0.999999999405
1.00000000015
1.00000000842
0.999999999873
0.999999999401
1.00000000036
0.999999999568
0.99999999993
0.999999999659
1.0
1.0
1.0
1.0
1.0
1.0
1.0
1.0
0.999999999999
0.999999999922
1.00000000003
1.00000000046
0.999999999831
0.999999998539
1.0000000002
1.00000000114
1.00000000111
0.999999999392
0.999999996893
0.999999998597
0.999999999933
0.999999999997
0.999999999952
1.00000000002
1.0000000001
1.00000000001
0.999999999991
1.0
1.0
1.0
1.0
1.0
1.0
1.0
1.0
0.999999999999
1.00000000001
0.999999999986
0.999999999966
0.999999999992
0.999999999954
0.999999999981
0.999999999982
1.00000000001
1.00000000002
1.0
0.999999999999
1.0
1.0
1.0
1.0
1.0
1.0
1.0
0.999999999999
1.00000000001
1.00000000001
0.999999999952
0.999999999988
1.00000000001
1.00000000022
0.999999999794
0.999999999835
0.999999999986
0.99999999992
1.0
1.00000000001
1.0
1.0
1.0
1.0
1.0
1.0
1.0
0.999999999999
1.0
1.0
1.0
1.00000000001
1.0
1.0000000001
0.999999999927
0.999999999932
0.999999999984
0.999999999973
1.0
1.0
1.0
1.0
1.0
1.0
1.0
1.0
1.0
0.999999999999
1.0
1.00000000003
0.999999999999
0.999999999884
0.99999999996
0.999999998997
1.00000000161
1.00000000157
0.999999999766
0.999999999785
0.999999999999
0.999999999996
1.0
1.0
1.0
1.0
1.0
1.0
1.0
1.0
1.0
1.00000000001
0.999999999996
0.999999999967
0.999999999989
0.999999999684
1.00000000035
1.00000000036
0.999999999951
0.999999999951
0.999999999996
0.999999999996
1.0
1.0
1.0
1.0
1.0
0.999999999999
1.0
1.00000000002
0.999999999987
0.999999999802
1.00000000006
1.00000000068
1.00000000027
1.00000000181
0.999999992129
0.999999991895
1.00000000127
1.00000000133
0.999999999926
0.999999999925
1.0
1.0
1.0
1.0
1.0
1.0
1.0
1.0
0.999999999999
0.999999999995
1.0
1.00000000002
1.00000000001
1.00000000047
0.999999998984
0.999999998928
1.00000000012
1.00000000013
0.999999999991
0.999999999991
0.999999999999
1.0
1.0
1.0
1.0
1.0
1.0
0.999999999999
1.0
1.00000000002
0.999999999997
0.999999999947
0.999999999985
0.999999999498
1.00000000078
1.0000000008
0.999999999863
0.999999999859
1.0
1.0
1.0
1.0
1.0
1.0
1.0
1.0
1.0
1.0
1.0
1.0
1.0
0.999999999999
0.999999999999
0.99999999993
1.00000000006
1.00000000006
0.999999999986
0.999999999985
0.999999999998
0.999999999998
1.0
1.0
1.0
1.0
1.0
1.0
1.0
1.0
1.0
1.0
1.0
1.0
1.0
0.999999999993
0.999999999973
0.999999999977
0.999999999997
0.999999999995
1.0
1.0
1.0
1.0
1.0
1.0
1.0
1.0
1.0
1.0
1.0
1.0
1.0
1.0
1.0
1.0
0.999999999994
0.999999999994
0.999999999999
0.999999999999
1.0
1.0
1.0
1.0
1.0
1.0
1.0
1.0
1.0
1.0
1.0
1.0
1.0
1.0
1.0
1.00000000012
0.999999999747
0.999999999713
1.00000000003
1.00000000003
0.999999999998
0.999999999997
1.0
1.0
1.0
1.0
1.0
1.0
1.0
1.0
1.0
1.0
1.0
1.0
1.0
0.999999999996
1.0
1.0
0.999999999999
0.999999999999
1.0
1.0
1.0
1.0
1.0
1.0
0.999999999999
1.0
0.999999999949
0.999999999998
0.999999999996
0.999999999996
1.00000000001
1.0
1.00000000001
0.999999999942
1.0
1.00000000003
0.999999999999
0.999999999993
0.999999999999
0.999999999999
1.0
1.0
1.0
1.0
0.999999999999
1.0
0.999999999957
0.999999999997
0.999999999997
1.0
1.00000000001
1.00000000001
1.00000000001
1.0
0.999999999999
0.999999999999
0.999999999999
0.999999999999
1.0
1.0
1.0
1.0
0.999999999999
0.999999999999
0.999999999915
1.00000000002
1.00000000084
0.999999999969
0.999999999877
0.999999999987
1.00000000001
1.00000000017
1.00000000005
1.0
0.999999999999
0.999999999995
0.999999999998
0.999999999999
1.0
1.0
1.0
1.0
0.999999999998
1.0
0.999999999919
1.00000000002
1.00000000074
0.999999999972
0.999999999884
1.00000000002
0.999999999977
0.999999999945
0.999999999999
1.0
1.0
1.0
1.0
1.0
1.0
1.0
1.0
1.0
0.999999999979
1.00000000001
1.00000000048
0.999999999847
0.999999994538
1.00000000015
1.00000000094
1.00000000047
0.999999999743
0.999999998141
0.999999999457
0.999999999999
0.999999999999
0.999999999999
1.0
1.0
1.0
1.0
1.0
1.0
0.999999999985
1.00000000001
1.00000000046
0.999999999856
0.999999994875
1.00000000015
1.00000000089
1.00000000026
0.999999999921
0.999999999195
0.999999999757
1.0
1.0
1.0
1.0
1.0
1.0
1.0
0.999999999999
1.0
1.00000000001
0.999999999994
0.999999999632
1.00000000011
1.00000000145
0.999999999928
0.999999999306
0.999999999296
1.00000000035
1.0000000021
1.00000000086
0.999999999978
0.999999999988
0.999999999982
1.0
1.00000000003
1.0
1.0
1.0
1.0
1.0
1.0
1.0
1.0
1.0
1.0
1.0
1.0
1.0
0.999999999994
1.0
0.999999999983
0.999999999988
0.999999999988
1.0
1.00000000001
1.0
1.0
1.0
1.0
1.0
1.0
1.0
1.0
1.0
1.0
1.0
1.0
0.999999999993
0.999999999995
1.0
0.999999999996
0.999999999979
0.999999999982
0.999999999988
0.999999999983
1.0
1.0
1.0
1.0
1.0
1.0
1.0
1.0
1.0
1.0
1.0
1.0
1.0
1.0
1.0
0.999999999993
0.999999999989
0.999999999989
0.999999999992
0.999999999992
1.0
0.999999999999
1.0
1.0
1.0
1.0
1.0
1.0
1.0
1.0
1.0
1.0
1.0
0.999999999993
0.999999999999
0.999999999644
1.0000000001
1.00000000009
0.999999999966
0.999999999967
0.999999999996
0.999999999996
1.0
1.0
1.0
1.0
1.0
1.0
1.0
1.0
1.0
1.0
1.0
0.999999999998
0.999999999999
0.999999999913
1.0
1.0
0.999999999989
0.999999999988
0.999999999997
0.999999999997
1.0
1.0
1.0
1.0
1.0
1.0
1.0
1.0
1.0
0.999999999984
1.00000000001
1.00000000015
1.00000000004
1.00000000093
0.999999998389
0.99999999833
1.00000000006
1.00000000007
0.999999999985
0.999999999985
1.0
1.0
1.0
1.0
1.0
1.0
1.0
1.0
1.0
1.0
1.0
1.0
1.0
1.00000000023
0.999999999845
0.99999999983
1.0
0.999999999999
0.999999999997
0.999999999997
1.0
1.0
1.0
1.0
1.0
1.0
1.0
1.0
1.0
1.0
1.0
0.999999999999
1.0
0.999999999802
1.00000000003
1.00000000003
0.999999999971
0.999999999971
0.999999999997
0.999999999998
1.0
1.0
1.0
1.0
1.0
1.0
1.0
1.0
1.0
1.0
1.0
1.0
1.0
0.999999999981
0.999999999999
1.0
0.999999999995
0.999999999995
0.999999999999
0.999999999999
1.0
1.0
1.0
1.0
1.0
1.0
1.0
1.0
1.0
1.0
1.0
1.0
1.0
0.999999999987
0.999999999989
0.99999999999
0.999999999995
0.999999999996
1.0
1.0
1.0
1.0
1.0
1.0
1.0
1.0
1.0
1.0
1.0
1.0
1.0
1.0
1.0
0.999999999998
0.999999999998
0.999999999998
0.999999999999
0.999999999999
1.0
1.0
1.0
1.0
1.0
1.0
1.0
1.0
0.999999999999
1.0
1.0
1.0
1.0
0.999999999999
0.999999999999
1.00000000007
0.999999999958
0.999999999949
0.999999999998
0.999999999998
0.999999999999
0.999999999999
1.0
1.0
1.0
1.0
1.0
1.0
0.999999999999
1.0
1.0
1.0
1.0
1.0
1.0
1.0
1.0
1.0
1.0
1.0
1.0
1.0
1.0
1.0
1.0
1.0
0.999999999997
1.0
0.999999999988
0.999999999998
0.999999999996
0.999999999999
1.0
1.0
1.0
0.999999999983
0.999999999991
0.999999999997
0.999999999997
0.999999999997
1.0
1.0
1.0
1.0
1.0
1.0
0.999999999997
1.0
0.999999999988
0.999999999998
0.999999999996
0.999999999999
1.0
1.0
1.0
0.999999999999
0.999999999999
0.999999999999
1.0
1.0
1.0
1.0
1.0
1.0
0.999999999998
1.0
0.999999999979
1.0
1.00000000003
0.999999999992
0.999999999979
1.0
0.999999999999
1.00000000001
1.00000000001
0.999999999997
0.999999999998
0.999999999998
0.999999999999
0.999999999999
1.0
1.0
1.0
1.0
0.999999999998
1.0
0.999999999979
1.0
1.00000000002
0.999999999994
0.99999999998
1.0
0.999999999998
1.0
1.00000000001
1.0
1.0
1.0
1.0
1.0
1.0
1.0
0.999999999999
1.0