# vtk DataFile Version 2.0
18001 -th Step
ASCII
DATASET UNSTRUCTURED_GRID
POINTS 9261 float
0.0 0.0 0.0
1.0 0.0 0.0
0.0 1.0 0.0
1.0 1.0 0.0
1.0 1.0 1.0
1.0 0.0 1.0
0.0 1.0 1.0
0.0 0.0 1.0
0.0 1.0 0.0213167761802
0.0 1.0 0.0478256198006
0.0 1.0 0.0803927314655
0.0 1.0 0.119810228776
0.0 1.0 0.166666670984
0.0 1.0 0.221186998955
0.0 1.0 0.283067740058
0.0 1.0 0.35135249059
0.0 1.0 0.424401951113
0.0 1.0 0.499999999998
0.0 1.0 0.575598048883
0.0 1.0 0.648647509407
0.0 1.0 0.71693225994
0.0 1.0 0.778813001043
0.0 1.0 0.833333329015
0.0 1.0 0.880189771223
0.0 1.0 0.919607268534
0.0 1.0 0.952174380199
0.0 1.0 0.97868322382
0.0213167761802 1.0 1.0
0.0478256198006 1.0 1.0
0.0803927314655 1.0 1.0
0.119810228776 1.0 1.0
0.166666670984 1.0 1.0
0.221186998955 1.0 1.0
0.283067740058 1.0 1.0
0.35135249059 1.0 1.0
0.424401951113 1.0 1.0
0.499999999998 1.0 1.0
0.575598048883 1.0 1.0
0.648647509407 1.0 1.0
0.71693225994 1.0 1.0
0.778813001043 1.0 1.0
0.833333329015 1.0 1.0
0.880189771223 1.0 1.0
0.919607268534 1.0 1.0
0.952174380199 1.0 1.0
0.97868322382 1.0 1.0
1.0 1.0 0.97868322382
1.0 1.0 0.952174380199
1.0 1.0 0.919607268534
1.0 1.0 0.880189771223
1.0 1.0 0.833333329015
1.0 1.0 0.778813001044
1.0 1.0 0.716932259942
1.0 1.0 0.64864750941
1.0 1.0 0.575598048887
1.0 1.0 0.500000000002
1.0 1.0 0.424401951117
1.0 1.0 0.351352490593
1.0 1.0 0.28306774006
1.0 1.0 0.221186998957
1.0 1.0 0.166666670985
1.0 1.0 0.119810228777
1.0 1.0 0.080392731466
1.0 1.0 0.047825619801
1.0 1.0 0.0213167761803
0.97868322382 1.0 0.0
0.952174380199 1.0 0.0
0.919607268534 1.0 0.0
0.880189771223 1.0 0.0
0.833333329015 1.0 0.0
0.778813001044 1.0 0.0
0.716932259942 1.0 0.0
0.64864750941 1.0 0.0
0.575598048887 1.0 0.0
0.500000000002 1.0 0.0
0.424401951117 1.0 0.0
0.351352490593 1.0 0.0
0.28306774006 1.0 0.0
0.221186998957 1.0 0.0
0.166666670985 1.0 0.0
0.119810228777 1.0 0.0
0.080392731466 1.0 0.0
0.047825619801 1.0 0.0
0.0213167761803 1.0 0.0
0.0 0.97868322382 0.0
0.0 0.952174380199 0.0
0.0 0.919607268534 0.0
0.0 0.880189771223 0.0
0.0 0.833333329015 0.0
0.0 0.778813001044 0.0
0.0 0.716932259942 0.0
0.0 0.64864750941 0.0
0.0 0.575598048887 0.0
0.0 0.500000000002 0.0
0.0 0.424401951117 0.0
0.0 0.351352490593 0.0
0.0 0.28306774006 0.0
0.0 0.221186998957 0.0
0.0 0.166666670985 0.0
0.0 0.119810228777 0.0
0.0 0.080392731466 0.0
0.0 0.047825619801 0.0
0.0 0.0213167761803 0.0
1.0 0.0213167761802 0.0
1.0 0.0478256198006 0.0
1.0 0.0803927314655 0.0
1.0 0.119810228776 0.0
1.0 0.166666670984 0.0
1.0 0.221186998955 0.0
1.0 0.283067740058 0.0
1.0 0.35135249059 0.0
1.0 0.424401951113 0.0
1.0 0.499999999998 0.0
1.0 0.575598048883 0.0
1.0 0.648647509407 0.0
1.0 0.71693225994 0.0
1.0 0.778813001043 0.0
1.0 0.833333329015 0.0
1.0 0.880189771223 0.0
1.0 0.919607268534 0.0
1.0 0.952174380199 0.0
1.0 0.97868322382 0.0
1.0 0.0 0.0213167761802
1.0 0.0 0.0478256198006
1.0 0.0 0.0803927314655
1.0 0.0 0.119810228776
1.0 0.0 0.166666670984
1.0 0.0 0.221186998955
1.0 0.0 0.283067740058
1.0 0.0 0.35135249059
1.0 0.0 0.424401951113
1.0 0.0 0.499999999998
1.0 0.0 0.575598048883
1.0 0.0 0.648647509407
1.0 0.0 0.71693225994
1.0 0.0 0.778813001043
1.0 0.0 0.833333329015
1.0 0.0 0.880189771223
1.0 0.0 0.919607268534
1.0 0.0 0.952174380199
1.0 0.0 0.97868322382
0.97868322382 0.0 1.0
0.952174380199 0.0 1.0
0.919607268534 0.0 1.0
0.880189771223 0.0 1.0
0.833333329015 0.0 1.0
0.778813001044 0.0 1.0
0.716932259942 0.0 1.0
0.64864750941 0.0 1.0
0.575598048887 0.0 1.0
0.500000000002 0.0 1.0
0.424401951117 0.0 1.0
0.351352490593 0.0 1.0
0.28306774006 0.0 1.0
0.221186998957 0.0 1.0
0.166666670985 0.0 1.0
0.119810228777 0.0 1.0
0.080392731466 0.0 1.0
0.047825619801 0.0 1.0
0.0213167761803 0.0 1.0
0.0 0.0 0.97868322382
0.0 0.0 0.952174380199
0.0 0.0 0.919607268534
0.0 0.0 0.880189771223
0.0 0.0 0.833333329015
0.0 0.0 0.778813001044
0.0 0.0 0.716932259942
0.0 0.0 0.64864750941
0.0 0.0 0.575598048887
0.0 0.0 0.500000000002
0.0 0.0 0.424401951117
0.0 0.0 0.351352490593
0.0 0.0 0.28306774006
0.0 0.0 0.221186998957
0.0 0.0 0.166666670985
0.0 0.0 0.119810228777
0.0 0.0 0.080392731466
0.0 0.0 0.047825619801
0.0 0.0 0.0213167761803
0.0213167761802 0.0 0.0
0.0478256198006 0.0 0.0
0.0803927314655 0.0 0.0
0.119810228776 0.0 0.0
0.166666670984 0.0 0.0
0.221186998955 0.0 0.0
0.283067740058 0.0 0.0
0.35135249059 0.0 0.0
0.424401951113 0.0 0.0
0.499999999998 0.0 0.0
0.575598048883 0.0 0.0
0.648647509407 0.0 0.0
0.71693225994 0.0 0.0
0.778813001043 0.0 0.0
0.833333329015 0.0 0.0
0.880189771223 0.0 0.0
0.919607268534 0.0 0.0
0.952174380199 0.0 0.0
0.97868322382 0.0 0.0
0.0 0.0213167761802 1.0
0.0 0.0478256198006 1.0
0.0 0.0803927314655 1.0
0.0 0.119810228776 1.0
0.0 0.166666670984 1.0
0.0 0.221186998955 1.0
0.0 0.283067740058 1.0
0.0 0.35135249059 1.0
0.0 0.424401951113 1.0
0.0 0.499999999998 1.0
0.0 0.575598048883 1.0
0.0 0.648647509407 1.0
0.0 0.71693225994 1.0
0.0 0.778813001043 1.0
0.0 0.833333329015 1.0
0.0 0.880189771223 1.0
0.0 0.919607268534 1.0
0.0 0.952174380199 1.0
0.0 0.97868322382 1.0
1.0 0.0213167761802 1.0
1.0 0.0478256198006 1.0
1.0 0.0803927314655 1.0
1.0 0.119810228776 1.0
1.0 0.166666670984 1.0
1.0 0.221186998955 1.0
1.0 0.283067740058 1.0
1.0 0.35135249059 1.0
1.0 0.424401951113 1.0
1.0 0.499999999998 1.0
1.0 0.575598048883 1.0
1.0 0.648647509407 1.0
1.0 0.71693225994 1.0
1.0 0.778813001043 1.0
1.0 0.833333329015 1.0
1.0 0.880189771223 1.0
1.0 0.919607268534 1.0
1.0 0.952174380199 1.0
1.0 0.97868322382 1.0
0.97868322382 0.0 0.0213167761802
0.952174380199 0.0 0.0213167761802
0.919607268534 0.0 0.0213167761802
0.880189771223 0.0 0.0213167761802
0.833333329015 0.0 0.0213167761802
0.778813001043 0.0 0.0213167761802
0.71693225994 0.0 0.0213167761802
0.648647509407 0.0 0.0213167761802
0.575598048883 0.0 0.0213167761802
0.499999999998 0.0 0.0213167761802
0.424401951114 0.0 0.0213167761803
0.35135249059 0.0 0.0213167761803
0.283067740058 0.0 0.0213167761803
0.221186998955 0.0 0.0213167761803
0.166666670984 0.0 0.0213167761803
0.119810228776 0.0 0.0213167761803
0.0803927314655 0.0 0.0213167761803
0.0478256198006 0.0 0.0213167761803
0.0213167761802 0.0 0.0213167761803
0.97868322382 0.0 0.0478256198006
0.952174380199 0.0 0.0478256198007
0.919607268534 0.0 0.0478256198007
0.880189771223 0.0 0.0478256198007
0.833333329015 0.0 0.0478256198007
0.778813001043 0.0 0.0478256198007
0.71693225994 0.0 0.0478256198007
0.648647509407 0.0 0.0478256198008
0.575598048883 0.0 0.0478256198008
0.499999999998 0.0 0.0478256198008
0.424401951114 0.0 0.0478256198008
0.35135249059 0.0 0.0478256198008
0.283067740058 0.0 0.0478256198009
0.221186998955 0.0 0.0478256198009
0.166666670984 0.0 0.0478256198009
0.119810228776 0.0 0.0478256198009
0.0803927314655 0.0 0.0478256198009
0.0478256198007 0.0 0.0478256198009
0.0213167761802 0.0 0.0478256198009
0.97868322382 0.0 0.0803927314655
0.952174380199 0.0 0.0803927314655
0.919607268534 0.0 0.0803927314655
0.880189771223 0.0 0.0803927314655
0.833333329015 0.0 0.0803927314656
0.778813001043 0.0 0.0803927314656
0.71693225994 0.0 0.0803927314656
0.648647509407 0.0 0.0803927314657
0.575598048883 0.0 0.0803927314657
0.499999999998 0.0 0.0803927314657
0.424401951114 0.0 0.0803927314658
0.35135249059 0.0 0.0803927314658
0.283067740058 0.0 0.0803927314659
0.221186998955 0.0 0.0803927314659
0.166666670984 0.0 0.0803927314659
0.119810228776 0.0 0.080392731466
0.0803927314655 0.0 0.080392731466
0.0478256198007 0.0 0.080392731466
0.0213167761802 0.0 0.080392731466
0.97868322382 0.0 0.119810228776
0.952174380199 0.0 0.119810228776
0.919607268534 0.0 0.119810228776
0.880189771223 0.0 0.119810228776
0.833333329015 0.0 0.119810228776
0.778813001043 0.0 0.119810228777
0.71693225994 0.0 0.119810228777
0.648647509408 0.0 0.119810228777
0.575598048884 0.0 0.119810228777
0.499999999999 0.0 0.119810228777
0.424401951114 0.0 0.119810228777
0.35135249059 0.0 0.119810228777
0.283067740058 0.0 0.119810228777
0.221186998955 0.0 0.119810228777
0.166666670984 0.0 0.119810228777
0.119810228776 0.0 0.119810228777
0.0803927314655 0.0 0.119810228777
0.0478256198007 0.0 0.119810228777
0.0213167761802 0.0 0.119810228777
0.97868322382 0.0 0.166666670984
0.952174380199 0.0 0.166666670984
0.919607268534 0.0 0.166666670984
0.880189771223 0.0 0.166666670984
0.833333329015 0.0 0.166666670984
0.778813001043 0.0 0.166666670984
0.71693225994 0.0 0.166666670985
0.648647509408 0.0 0.166666670985
0.575598048884 0.0 0.166666670985
0.499999999999 0.0 0.166666670985
0.424401951114 0.0 0.166666670985
0.35135249059 0.0 0.166666670985
0.283067740058 0.0 0.166666670985
0.221186998955 0.0 0.166666670985
0.166666670984 0.0 0.166666670985
0.119810228776 0.0 0.166666670985
0.0803927314656 0.0 0.166666670985
0.0478256198007 0.0 0.166666670985
0.0213167761802 0.0 0.166666670985
0.97868322382 0.0 0.221186998955
0.952174380199 0.0 0.221186998955
0.919607268534 0.0 0.221186998955
0.880189771223 0.0 0.221186998955
0.833333329015 0.0 0.221186998955
0.778813001043 0.0 0.221186998955
0.71693225994 0.0 0.221186998956
0.648647509408 0.0 0.221186998956
0.575598048884 0.0 0.221186998956
0.499999999999 0.0 0.221186998956
0.424401951114 0.0 0.221186998956
0.351352490591 0.0 0.221186998956
0.283067740058 0.0 0.221186998956
0.221186998955 0.0 0.221186998957
0.166666670984 0.0 0.221186998957
0.119810228777 0.0 0.221186998957
0.0803927314656 0.0 0.221186998957
0.0478256198007 0.0 0.221186998957
0.0213167761802 0.0 0.221186998957
0.97868322382 0.0 0.283067740058
0.952174380199 0.0 0.283067740058
0.919607268534 0.0 0.283067740058
0.880189771223 0.0 0.283067740058
0.833333329015 0.0 0.283067740058
0.778813001044 0.0 0.283067740058
0.71693225994 0.0 0.283067740059
0.648647509408 0.0 0.283067740059
0.575598048884 0.0 0.283067740059
0.499999999999 0.0 0.283067740059
0.424401951115 0.0 0.283067740059
0.351352490591 0.0 0.28306774006
0.283067740059 0.0 0.28306774006
0.221186998956 0.0 0.28306774006
0.166666670985 0.0 0.28306774006
0.119810228777 0.0 0.28306774006
0.0803927314656 0.0 0.28306774006
0.0478256198007 0.0 0.28306774006
0.0213167761802 0.0 0.28306774006
[...]
CELL_DATA 8000
SCALARS Density float 1
LOOKUP_TABLE default
1.00000021032
0.999999950816
1.00000004682
0.999999992868
0.999999894806
0.999999991402
1.00000001648
1.00000000083
0.999999998564
1.00000000139
1.00000000005
0.999999999873
1.0
0.999999999326
1.00000000148
0.999999995079
0.999999981761
1.0000000431
1.00000005406
1.00000000753
1.00000014859
1.00000001355
0.999999996336
0.999999975535
1.00000001114
1.00000000063
0.999999995219
0.999999999935
0.999999999702
1.00000000259
1.00000000003
0.999999999516
0.999999999987
1.00000000057
1.00000000208
0.999999976503
0.999999996736
1.00000010373
0.9999999808
0.999999952321
0.999999499689
1.00000087605
1.00000074539
0.999999973369
1.00000013414
0.999999998546
0.999999967903
0.999999999844
1.00000000055
0.999999999297
1.00000000002
1.00000000008
0.999999999971
1.00000000031
1.00000000105
0.9999999952
1.00000000579
1.00000000009
0.999999941049
0.999999980137
0.999999725174
1.00000033395
1.00000031438
1.00000001013
1.00000003533
0.999999997452
0.99999999109
0.999999999939
1.00000000021
0.999999998806
1.0
1.00000000017
1.00000000028
0.999999999888
1.0000000038
0.999999994538
0.999999885978
1.00000000841
1.00000033415
1.00000016045
1.0000005356
0.999995541364
0.999995578085
1.00000084583
1.00000080112
0.999999987833
0.999999995585
0.999999998348
0.999999998191
1.00000000047
1.0
0.999999999949
1.00000000007
0.999999999965
1.0000000006
0.999999997988
0.999999971045
1.00000001171
1.00000010069
1.00000004136
1.00000023813
0.999998779427
0.999998757077
1.00000017784
1.00000018105
1.00000000289
1.00000000374
0.999999999581
0.999999999528
1.00000000014
1.00000000002
0.999999999953
1.00000000118
0.999999997215
0.999999946449
1.00000005229
1.0000004865
0.999999930879
0.999999016335
0.99999951419
0.999999457049
1.00001215998
1.00001247527
0.999996520339
0.999996369843
1.00000024645
1.0000002627
0.999999997856
0.999999997921
0.999999999776
0.999999999794
1.0
0.999999999955
1.00000000007
0.999999999367
1.00000000123
1.00000001894
0.999999993784
0.999999942985
0.999999974599
0.999999842818
1.00000184783
1.00000192514
0.999999559365
0.99999952617
1.00000002022
1.00000002247
1.00000000023
1.00000000039
0.999999999987
0.999999999982
1.00000000001
1.00000000015
0.999999999784
1.00000000264
0.999999994944
0.999999939606
1.0000000202
1.00000016311
1.00000007461
1.00000017401
0.999997815361
0.999997766017
1.00000045759
1.00000047594
0.999999992559
0.999999992293
0.999999999004
0.999999998858
1.0
1.0
1.0
1.0
0.999999999996
0.999999999921
1.00000000008
0.999999999715
1.00000000042
1.00000000322
1.00000000103
1.00000003845
0.999999770692
0.999999761575
1.00000003206
1.00000003464
1.00000000083
1.00000000102
0.999999999943
0.999999999917
1.0
0.999999999998
1.0
1.0
0.999999999882
1.00000000017
0.999999999877
1.00000000052
0.99999999878
0.999999993906
0.999999998253
0.999999977446
1.00000006662
1.00000006189
1.00000000173
1.00000000357
0.999999998665
0.999999998638
0.999999999998
0.999999999974
1.0
1.0
0.999999999999
0.999999999999
0.99999999989
0.999999999997
0.999999999995
0.999999999985
1.00000000001
1.00000000001
1.00000000003
0.999999992862
1.00000001462
1.00000001573
0.999999999785
0.999999999622
0.999999999897
0.999999999876
1.0
0.999999999998
0.999999999996
1.0
0.999999999211
1.00000000012
0.999999999039
0.999999999752
0.999999998942
0.999999999925
1.00000000015
1.00000000061
1.00000000036
0.999999960073
1.00000039683
1.00000044696
0.999999900525
0.999999878711
1.00000000529
1.00000000727
1.00000000002
0.999999999996
0.999999999994
0.999999999999
0.999999999323
1.00000000018
0.999999999849
0.999999999845
0.999999999149
1.00000000031
0.999999999772
0.999999999957
0.999999999563
1.0000000056
0.999999988546
0.999999985459
1.00000000081
1.00000000162
1.00000000004
1.00000000005
0.999999999991
0.999999999998
0.999999998823
1.00000000026
0.999999998536
1.00000000086
1.00000016744
1.00000000088
1.00000000027
1.00000000519
0.999999994419
1.00000000593
0.999999989584
1.00000004082
0.999999927666
0.999999884423
0.999999999224
1.00000001665
1.00000000155
1.00000000021
0.999999999964
0.999999999974
0.999999998674
1.00000000032
0.999999999242
0.999999999792
1.00000013839
1.00000000192
0.999999999299
1.00000000167
0.999999988521
0.99999996546
0.999999987816
0.99999999519
1.0000000003
1.00000000297
1.00000000082
1.00000000039
1.0
0.999999999971
0.999999999445
1.00000000008
1.00000000017
1.00000000157
1.00000028858
0.999999921746
0.999997589231
1.00000009547
1.00000047006
1.00000012474
0.999999919706
0.999999317816
0.999999803032
0.999999984052
1.00000000123
1.00000001173
1.00000000325
1.00000000079
0.999999999963
0.999999999905
0.999999999275
1.00000000007
1.00000000288
1.00000000119
1.00000026645
0.999999930862
0.999997820599
1.00000008522
1.00000042081
0.999999963508
1.00000006528
1.00000008749
1.0000000457
1.00000000099
1.00000000117
1.00000000087
1.00000000018
0.999999999785
0.999999999905
1.00000000001
0.999999999816
1.00000000051
1.00000007034
0.999999968761
0.999998540943
1.0000004237
1.00000846964
0.999999519342
0.9999971491
0.999998309417
1.00000100236
1.00000514943
1.00000207885
1.00000000358
1.00000000211
1.00000000075
1.00000000002
0.999999999932
0.999999999893
0.999999999971
1.00000000042
1.00000000057
1.00000006272
0.999999969596
0.999998600148
1.00000040401
1.00000799546
0.999999506274
0.999997347678
0.999999031087
1.00000058178
1.00000284804
1.00000122185
1.00000000032
0.999999999985
0.999999999967
1.00000000001
1.00000000014
0.999999999914
1.00000000002
1.00000000286
0.99999999919
0.999999972186
1.00000001052
1.00000014442
0.999999948133
0.999999460049
0.999999939116
1.00000059593
1.00000130065
0.999999403616
0.999997099486
0.999998776176
1.00000010705
1.00000001747
1.00000006668
0.999999999159
0.999999944605
0.999999994678
1.00000000872
1.00000000041
0.999999999183
1.0000000007
1.00000000002
0.99999999996
1.00000000002
0.999999999507
1.00000000055
0.999999999229
0.999999990788
1.0000000198
1.00000002962
1.00000000601
1.00000007264
1.00000003074
1.00000002554
0.99999999143
1.0000000078
0.99999999933
0.999999997956
1.00000000002
0.9999999997
1.00000000149
1.00000000001
0.999999999748
1.00000000002
0.999999999975
1.000000001
0.999999989866
0.999999993418
1.00000005293
1.00000000334
0.999999984093
0.999999699608
1.00000031806
1.00000025997
1.00000002063
1.00000010074
0.99999999884
0.999999985655
0.999999999946
0.999999999938
0.999999999561
1.00000000001
1.00000000005
1.0
1.00000000005
1.00000000059
0.999999997571
0.999999999364
1.00000000085
0.999999978243
0.999999994727
0.999999842258
1.00000010659
1.00000009754
1.0000000177
1.00000003115
0.999999999134
0.999999996037
0.999999999939
1.00000000001
0.999999999375
1.00000000001
1.00000000007
1.00000000016
0.999999999855
0.999999999702
0.999999998176
0.999999954849
1.000000008
1.00000016295
1.00000007278
1.00000037347
0.9999977572
0.999997779436
1.00000033815
1.00000031379
1.00000000593
1.00000000943
0.999999999124
0.999999999105
1.00000000029
0.999999999986
0.999999999973
1.00000000003
0.999999999963
0.999999999765
0.999999999434
0.999999989553
1.00000000612
1.00000004664
1.0000000176
1.00000015901
0.999999415383
0.999999404162
1.00000005737
1.00000005825
1.00000000429
1.00000000477
0.999999999843
0.999999999827
1.00000000006
1.00000000001
0.99999999996
1.00000000018
0.999999999189
0.999999975784
1.00000002618
1.00000025792
0.999999955475
0.999999442388
0.999999728238
0.999999612127
1.00000690717
1.00000708949
0.999998168091
0.999998085548
1.00000010525
1.00000011244
1.0000000007
1.00000000094
0.999999999878
0.999999999885
0.999999999999
0.999999999972
1.00000000005
1.00000000005
1.00000000026
1.00000000747
0.999999996706
0.999999972208
0.99999998828
0.99999988931
1.0000010205
1.00000106445
0.999999784159
0.999999766824
1.00000000628
1.00000000694
1.00000000026
1.00000000038
0.999999999998
0.999999999998
1.0
1.0000000001
0.9999999998
1.00000000009
0.999999998534
0.99999997477
1.00000001153
1.00000008255
1.00000003591
1.00000012801
0.999998868263
0.999998842825
1.00000019101
1.00000019899
1.00000000326
1.0000000036
0.999999999451
0.99999999937
0.999999999991
0.99999999999
1.0
0.999999999999
1.0
0.999999999957
1.00000000006
1.00000000011
1.00000000014
1.00000000117
1.00000000022
1.00000002742
0.999999887152
0.999999882572
1.00000000991
1.00000001085
1.00000000093
1.0000000011
0.999999999987
0.999999999977
1.0
0.999999999999
0.999999999993
1.00000000001
0.999999999932
1.00000000009
0.999999999873
0.999999999748
0.999999999518
0.999999997806
0.999999999727
0.999999984136
1.00000002361
1.00000002092
1.00000000462
1.00000000549
0.999999999391
0.999999999443
0.99999999998
0.999999999964
1.0
1.0
0.999999999993
1.0
0.999999999948
0.999999999997
0.999999999991
0.999999999996
1.00000000001
1.00000000002
1.00000000001
0.99999999532
1.00000000567
1.00000000615
1.00000000044
1.00000000043
0.999999999961
0.99999999995
0.999999999998
0.999999999998
0.999999999982
1.0
0.999999999603
1.00000000006
1.0000000008
0.999999999903
0.999999999515
1.00000000002
0.999999999982
1.00000000023
1.00000000002
0.999999973156
1.00000022938
1.00000025801
0.999999948272
0.999999936813
1.00000000196
1.00000000277
1.00000000005
1.00000000005
0.999999999981
1.0
0.999999999672
1.00000000008
1.00000000099
0.999999999964
0.999999999601
1.00000000012
0.999999999757
0.999999999681
0.999999999653
1.00000000342
0.999999994972
0.999999993496
1.00000000009
1.00000000037
1.00000000003
1.00000000005
0.99999999998
1.0
0.999999999445
1.00000000013
1.00000000416
0.999999999379
1.00000007013
1.00000000211
1.00000000712
1.00000000365
0.999999996255
0.999999996235
0.999999991679
1.00000002588
0.999999965823
0.999999941951
0.999999996943
1.00000000567
1.00000000084
1.00000000036
0.999999999978
0.999999999996
0.999999999395
1.00000000016
1.00000000393
0.99999999889
1.00000005621
1.00000000218
1.00000000557
0.99999999902
0.999999995874
0.99999998601
0.999999995768
0.99999999742
0.999999999516
1.00000000067
1.00000000038
1.00000000031
1.00000000001
0.999999999997
0.999999999757
1.00000000005
1.00000000349
0.99999999961
1.00000011492
0.999999969032
0.999998733776
1.00000003461
1.00000017174
1.00000002164
0.999999989223
0.999999748196
0.999999957397
0.999999991107
0.999999998735
1.00000000355
1.00000000157
1.00000000083
1.00000000006
0.999999999982
0.999999999698
1.00000000005
1.00000000477
0.999999999466
1.00000010583
0.999999973354
0.999998860091
1.00000002781
1.00000015657
0.999999974663
1.00000005159
1.00000008519
1.00000004682
1.00000000015
1.0000000005
1.00000000051
1.00000000017
0.999999999937
0.999999999968
1.00000000001
1.00000000047
1.00000000008
1.00000002771
0.999999986866
0.999999250629
1.00000021529
1.0000048126
0.999999747955
0.999998611444
0.999999285878
1.00000042403
1.00000244088
1.00000093854
1.0000000013
1.00000000103
1.00000000067
1.00000000017
1.00000000006
0.999999999968
0.999999999993
1.00000000076
1.00000000011
1.00000002367
0.99999998715
0.99999927986
1.00000020516
1.00000454242
0.99999974899
0.99999869943
0.999999600311
1.00000021578
1.0000013015
1.00000053689
1.00000000007
0.999999999929
0.999999999968
0.999999999992
1.00000000008
0.999999999984
1.00000000002
1.00000000162
0.99999999951
0.999999981135
1.00000000716
1.00000010268
0.9999999624
0.999999636392
0.999999985409
1.00000037195
1.00000070739
0.999999665405
0.999998372343
0.999999308282
1.00000000666
1.00000001368
1.0000000161
1.00000000161
0.999999998029
0.999999999345
1.00000000031
1.00000000001
0.999999999908
1.00000000006
0.999999999998
1.0
1.00000000001
0.999999999925
0.999999999968
1.00000000043
0.999999999591
1.00000000037
1.00000000193
1.00000000085
1.00000000365
1.00000000877
1.00000000949
1.00000000123
1.00000000166
0.999999999614
0.99999999987
1.00000000001
0.999999999925
1.00000000013
1.0
0.999999999984
1.00000000001
0.999999999896
0.999999999982
1.00000000001
0.999999998292
1.0000000026
1.0000000038
1.00000000166
0.999999972563
0.999999979943
0.999999979463
1.00000001125
1.00000001465
1.0
0.999999999988
0.999999999989
0.999999999875
0.999999999972
1.0
1.0
1.00000000001
0.999999999962
1.00000000002
0.999999999883
0.999999998974
1.00000000029
1.00000000124
1.00000000112
0.999999987006
0.999999987399
0.999999987196
1.00000000457
1.00000000538
1.00000000019
1.00000000005
0.999999999983
0.999999999968
0.999999999962
1.0
0.999999999996
1.00000000001
0.999999999961
0.999999999276
1.00000000022
1.00000000143
1.00000000158
1.00000000608
1.00000000131
1.00000003872
0.999999896642
0.999999898514
0.999999990503
0.999999988845
1.0000000043
1.00000000435
0.999999999963
0.999999999981
1.00000000002
0.999999999992
0.999999999996
0.999999999999
0.999999999993
0.999999999826
1.00000000011
1.00000000071
1.00000000037
1.000000001
0.999999999913
1.0000000159
0.999999980626
0.999999980112
0.999999993108
0.99999999293
1.00000000117
1.00000000121
1.00000000002
1.00000000003
0.999999999999
1.0
0.999999999992
0.999999999872
1.00000000015
0.999999999579
1.00000000129
1.00000001561
0.999999995614
0.999999959098
0.999999980581
0.999999960837
1.00000051541
1.00000052963
0.999999890256
0.999999884486
0.999999999827
0.999999999961
1.00000000065
1.00000000073
0.99999999999
0.99999999999
0.999999999999
0.999999999997
1.00000000001
1.00000000012
0.999999999899
0.999999999748
0.999999999772
0.999999998967
0.999999999722
0.999999988813
1.00000006985
1.00000007311
0.999999991081
0.999999990078
0.999999999098
0.999999999015
1.00000000007
1.00000000009
1.0
1.0
0.999999999997
1.00000000001
0.999999999955
0.999999999582
1.00000000027
1.0000000003
1.00000000104
1.00000000403
1.00000000141
1.00000001296
0.999999938144
0.999999936821
0.999999997984
0.99999999803
1.00000000259
1.00000000277
0.999999999965
0.999999999957
0.999999999994
0.999999999993
1.0
0.999999999999
1.0
0.999999999998
1.00000000001
1.00000000009
0.999999999986
0.999999999922
0.999999999918
1.0000000028
0.999999995177
0.999999994969
0.999999998563
0.99999999851
1.00000000023
1.00000000027
1.00000000001
1.00000000001
1.0
1.0
0.999999999996
1.0
0.999999999992
1.0
0.999999999967
0.999999999815
1.00000000001
1.00000000015
1.00000000018
0.999999998047
0.999999998313
0.999999998102
1.00000000155
1.00000000159
1.00000000002
1.00000000004
0.999999999989
0.999999999987
0.999999999999
1.0
0.999999999997
1.0
0.999999999999
0.999999999999
0.999999999996
1.0
0.999999999999
1.0
0.999999999999
0.999999999478
0.999999999791
0.999999999792
1.00000000022
1.00000000024
1.00000000001
1.00000000001
0.999999999999
0.999999999999
0.99999999999
1.0
0.999999999988
0.999999999998
1.00000000049
1.00000000001
1.00000000001
1.00000000003
0.999999999957
0.999999999967
0.999999999927
0.999999997572
1.00000001816
1.00000002031
0.999999996948
0.999999996241
0.999999999882
0.999999999866
1.00000000002
1.00000000002
0.999999999991
1.0
0.999999999997
1.0
1.00000000043
1.00000000002
1.0
0.999999999982
0.999999999934
0.999999999881
0.999999999927
1.0000000003
0.999999999961
0.999999999914
0.999999999905
0.999999999878
1.0
1.00000000001
0.999999999992
1.0
1.0
1.0
1.00000000193
0.999999999613
0.999999999437
1.0000000007
1.00000000267
1.00000000038
0.999999999579
0.999999997818
0.999999998587
1.00000000228
0.999999998827
0.999999997214
0.999999999058
0.99999999946
1.00000000008
1.00000000011
0.999999999997
1.0
1.00000000001
1.0
1.00000000172
0.999999999612
0.999999998915
1.00000000051
1.00000000227
0.99999999936
1.00000000037
1.0000000003
1.00000000034
0.999999999818
0.999999999788
0.999999999788
1.00000000001
1.00000000005
1.00000000001
1.00000000001
1.00000000001
1.0
1.00000000136
0.999999999581
0.999999996866
1.00000000104
0.99999992444
0.999999997406
0.999999989032
0.999999988989
1.00000000831
1.00000001476
1.00000001499
0.999999999316
0.999999999393
0.999999999486
1.00000000008
1.00000000019
1.00000000003
1.00000000002
1.00000000002
1.0
1.00000000138
0.999999999592
0.999999996983
1.00000000113
0.999999933008
0.999999996613
0.999999991111
0.999999996684
1.00000000819
1.00000001608
1.00000000993
0.99999999991
1.0
1.00000000005
1.00000000004
1.00000000002
1.00000000001
1.0
1.00000000022
0.999999999945
0.999999999212
1.00000000009
0.999999960399
1.00000001052
1.00000035947
0.999999984883
0.999999948354
1.00000000592
0.999999997176
1.00000006852
1.00000001423
0.999999999922
1.00000000004
1.00000000012
1.00000000007
1.00000000005
1.00000000001
1.0
1.00000000022
0.999999999948
0.999999998991
1.00000000007
0.999999961596
1.00000001
1.00000033928
0.999999987067
0.999999948995
1.00000000651
0.999999988847
1.00000002365
1.0000000044
0.999999999971
0.999999999973
0.999999999987
0.999999999996
1.00000000001
1.00000000001
1.0
1.00000000017
0.999999999945
0.999999997931
1.00000000079
1.00000000994
0.999999995873
0.999999965702
1.00000000246
1.0000000326
1.00000004587
0.999999976071
0.999999886089
0.999999950999
0.999999996954
1.00000000144
0.999999999164
1.00000000075
1.00000000373
1.00000000015
0.999999999446
0.999999999978
1.0
1.00000000001
0.999999999998
1.0
1.0
1.0
0.999999999979
1.00000000003
1.00000000039
0.999999999092
0.999999998568
0.999999999691
0.999999997824
0.999999999982
1.00000000024
1.00000000089
1.00000000034
0.999999999979
0.999999999974
0.999999999997
0.999999999992
0.999999999954
0.999999999999
1.00000000001
1.0
0.99999999998
0.999999999926
1.00000000044
1.00000000012
0.999999997589
1.00000000004
1.00000000098
1.00000001248
0.999999984108
0.999999986797
1.00000000066
0.999999997067
1.00000000019
1.00000000073
0.999999999999
0.999999999976
1.00000000005
0.999999999999
0.999999999997
1.0
0.999999999987
0.999999999964
1.00000000009
0.999999999929
1.00000000001
1.00000000111
1.00000000034
1.00000000622
0.999999994075
0.999999994454
0.999999999807
0.999999999208
1.00000000014
1.00000000024
1.0
0.999999999993
1.00000000003
1.0
0.999999999996
0.99999999999
1.0
0.999999999884
1.00000000014
1.00000000217
0.999999999905
0.99999999294
0.999999997031
0.999999973024
1.00000009618
1.00000009489
0.9999999841
0.999999985142
1.00000000055
1.0000000004
1.00000000006
1.00000000006
0.999999999989
0.999999999999
0.999999999999
0.999999999997
1.0
0.999999999984
1.00000000004
1.00000000054
0.999999999763
0.999999997909
0.999999999201
0.999999989929
1.00000002436
1.00000002483
0.999999996601
0.999999996547
1.00000000002
1.00000000001
1.00000000002
1.00000000002
0.999999999997
1.0
1.0
0.999999999963
1.00000000006
1.00000000098
0.999999999042
0.999999989044
1.00000000241
1.0000000273
1.00000001262
1.00000003519
0.999999670534
0.999999661531
1.0000000747
1.00000007813
0.999999995605
0.999999995393
1.00000000012
1.00000000012
1.00000000001
1.00000000001
1.0
1.0
0.999999999999
1.00000000002
0.999999999969
0.999999999638
1.0000000001
1.0000000012
1.00000000047
1.00000000942
0.999999952837
0.999999950679
1.00000000848
1.00000000915
0.999999999569
0.999999999561
1.0
1.0
1.0
1.0
0.999999999999
0.999999999995
1.0
0.999999999905
1.00000000012
1.00000000114
0.999999999676
0.999999996601
0.99999999873
0.999999988194
1.00000004733
1.00000004844
0.999999991698
0.999999991386
1.00000000043
1.00000000045
1.00000000004
1.00000000004
0.999999999999
0.999999999998
1.0
1.0
1.0
1.0
0.999999999999
1.00000000001
0.999999999991
0.999999999939
0.999999999975
0.999999997858
1.00000000439
1.00000000459
0.999999999328
0.99999999929
1.00000000001
1.00000000001
1.00000000001
1.00000000001
1.0
1.0
0.999999999999
1.0
1.0
0.999999999993
0.999999999999
0.999999999974
1.00000000003
1.00000000012
1.00000000005
1.00000000059
0.999999998838
0.999999998957
1.00000000014
1.00000000011
1.00000000006
1.00000000006
0.999999999999
0.999999999999
1.0
1.0
1.0
1.0
1.0
1.0
1.0
1.0
0.999999999999
0.999999999999
0.999999999998
1.00000000017
0.999999999732
0.999999999712
1.00000000003
1.00000000003
1.00000000001
1.00000000001
1.0
1.0
0.999999999999
1.0
1.00000000003
0.999999999995
1.00000000008
1.00000000001
1.00000000004
1.00000000001
0.99999999999
0.999999999974
0.999999999975
1.00000000239
0.999999989213
0.99999998781
1.00000000193
1.00000000236
0.999999999896
0.999999999854
1.0
1.0
0.999999999999
1.0
1.00000000003
0.999999999995
1.00000000006
1.00000000001
1.00000000004
0.999999999985