# vtk DataFile Version 2.0
19001 -th Step
ASCII
DATASET UNSTRUCTURED_GRID
POINTS 9261 float
0.0 0.0 0.0
1.0 0.0 0.0
0.0 1.0 0.0
1.0 1.0 0.0
1.0 1.0 1.0
1.0 0.0 1.0
0.0 1.0 1.0
0.0 0.0 1.0
0.0 1.0 0.0213167761802
0.0 1.0 0.0478256198006
0.0 1.0 0.0803927314655
0.0 1.0 0.119810228776
0.0 1.0 0.166666670984
0.0 1.0 0.221186998955
0.0 1.0 0.283067740058
0.0 1.0 0.35135249059
0.0 1.0 0.424401951113
0.0 1.0 0.499999999998
0.0 1.0 0.575598048883
0.0 1.0 0.648647509407
0.0 1.0 0.71693225994
0.0 1.0 0.778813001043
0.0 1.0 0.833333329015
0.0 1.0 0.880189771223
0.0 1.0 0.919607268534
0.0 1.0 0.952174380199
0.0 1.0 0.97868322382
0.0213167761802 1.0 1.0
0.0478256198006 1.0 1.0
0.0803927314655 1.0 1.0
0.119810228776 1.0 1.0
0.166666670984 1.0 1.0
0.221186998955 1.0 1.0
0.283067740058 1.0 1.0
0.35135249059 1.0 1.0
0.424401951113 1.0 1.0
0.499999999998 1.0 1.0
0.575598048883 1.0 1.0
0.648647509407 1.0 1.0
0.71693225994 1.0 1.0
0.778813001043 1.0 1.0
0.833333329015 1.0 1.0
0.880189771223 1.0 1.0
0.919607268534 1.0 1.0
0.952174380199 1.0 1.0
0.97868322382 1.0 1.0
1.0 1.0 0.97868322382
1.0 1.0 0.952174380199
1.0 1.0 0.919607268534
1.0 1.0 0.880189771223
1.0 1.0 0.833333329015
1.0 1.0 0.778813001044
1.0 1.0 0.716932259942
1.0 1.0 0.64864750941
1.0 1.0 0.575598048887
1.0 1.0 0.500000000002
1.0 1.0 0.424401951117
1.0 1.0 0.351352490593
1.0 1.0 0.28306774006
1.0 1.0 0.221186998957
1.0 1.0 0.166666670985
1.0 1.0 0.119810228777
1.0 1.0 0.080392731466
1.0 1.0 0.047825619801
1.0 1.0 0.0213167761803
0.97868322382 1.0 0.0
0.952174380199 1.0 0.0
0.919607268534 1.0 0.0
0.880189771223 1.0 0.0
0.833333329015 1.0 0.0
0.778813001044 1.0 0.0
0.716932259942 1.0 0.0
0.64864750941 1.0 0.0
0.575598048887 1.0 0.0
0.500000000002 1.0 0.0
0.424401951117 1.0 0.0
0.351352490593 1.0 0.0
0.28306774006 1.0 0.0
0.221186998957 1.0 0.0
0.166666670985 1.0 0.0
0.119810228777 1.0 0.0
0.080392731466 1.0 0.0
0.047825619801 1.0 0.0
0.0213167761803 1.0 0.0
0.0 0.97868322382 0.0
0.0 0.952174380199 0.0
0.0 0.919607268534 0.0
0.0 0.880189771223 0.0
0.0 0.833333329015 0.0
0.0 0.778813001044 0.0
0.0 0.716932259942 0.0
0.0 0.64864750941 0.0
0.0 0.575598048887 0.0
0.0 0.500000000002 0.0
0.0 0.424401951117 0.0
0.0 0.351352490593 0.0
0.0 0.28306774006 0.0
0.0 0.221186998957 0.0
0.0 0.166666670985 0.0
0.0 0.119810228777 0.0
0.0 0.080392731466 0.0
0.0 0.047825619801 0.0
0.0 0.0213167761803 0.0
1.0 0.0213167761802 0.0
1.0 0.0478256198006 0.0
1.0 0.0803927314655 0.0
1.0 0.119810228776 0.0
1.0 0.166666670984 0.0
1.0 0.221186998955 0.0
1.0 0.283067740058 0.0
1.0 0.35135249059 0.0
1.0 0.424401951113 0.0
1.0 0.499999999998 0.0
1.0 0.575598048883 0.0
1.0 0.648647509407 0.0
1.0 0.71693225994 0.0
1.0 0.778813001043 0.0
1.0 0.833333329015 0.0
1.0 0.880189771223 0.0
1.0 0.919607268534 0.0
1.0 0.952174380199 0.0
1.0 0.97868322382 0.0
1.0 0.0 0.0213167761802
1.0 0.0 0.0478256198006
1.0 0.0 0.0803927314655
1.0 0.0 0.119810228776
1.0 0.0 0.166666670984
1.0 0.0 0.221186998955
1.0 0.0 0.283067740058
1.0 0.0 0.35135249059
1.0 0.0 0.424401951113
1.0 0.0 0.499999999998
1.0 0.0 0.575598048883
1.0 0.0 0.648647509407
1.0 0.0 0.71693225994
1.0 0.0 0.778813001043
1.0 0.0 0.833333329015
1.0 0.0 0.880189771223
1.0 0.0 0.919607268534
1.0 0.0 0.952174380199
1.0 0.0 0.97868322382
0.97868322382 0.0 1.0
0.952174380199 0.0 1.0
0.919607268534 0.0 1.0
0.880189771223 0.0 1.0
0.833333329015 0.0 1.0
0.778813001044 0.0 1.0
0.716932259942 0.0 1.0
0.64864750941 0.0 1.0
0.575598048887 0.0 1.0
0.500000000002 0.0 1.0
0.424401951117 0.0 1.0
0.351352490593 0.0 1.0
0.28306774006 0.0 1.0
0.221186998957 0.0 1.0
0.166666670985 0.0 1.0
0.119810228777 0.0 1.0
0.080392731466 0.0 1.0
0.047825619801 0.0 1.0
0.0213167761803 0.0 1.0
0.0 0.0 0.97868322382
0.0 0.0 0.952174380199
0.0 0.0 0.919607268534
0.0 0.0 0.880189771223
0.0 0.0 0.833333329015
0.0 0.0 0.778813001044
0.0 0.0 0.716932259942
0.0 0.0 0.64864750941
0.0 0.0 0.575598048887
0.0 0.0 0.500000000002
0.0 0.0 0.424401951117
0.0 0.0 0.351352490593
0.0 0.0 0.28306774006
0.0 0.0 0.221186998957
0.0 0.0 0.166666670985
0.0 0.0 0.119810228777
0.0 0.0 0.080392731466
0.0 0.0 0.047825619801
0.0 0.0 0.0213167761803
0.0213167761802 0.0 0.0
0.0478256198006 0.0 0.0
0.0803927314655 0.0 0.0
0.119810228776 0.0 0.0
0.166666670984 0.0 0.0
0.221186998955 0.0 0.0
0.283067740058 0.0 0.0
0.35135249059 0.0 0.0
0.424401951113 0.0 0.0
0.499999999998 0.0 0.0
0.575598048883 0.0 0.0
0.648647509407 0.0 0.0
0.71693225994 0.0 0.0
0.778813001043 0.0 0.0
0.833333329015 0.0 0.0
0.880189771223 0.0 0.0
0.919607268534 0.0 0.0
0.952174380199 0.0 0.0
0.97868322382 0.0 0.0
0.0 0.0213167761802 1.0
0.0 0.0478256198006 1.0
0.0 0.0803927314655 1.0
0.0 0.119810228776 1.0
0.0 0.166666670984 1.0
0.0 0.221186998955 1.0
0.0 0.283067740058 1.0
0.0 0.35135249059 1.0
0.0 0.424401951113 1.0
0.0 0.499999999998 1.0
0.0 0.575598048883 1.0
0.0 0.648647509407 1.0
0.0 0.71693225994 1.0
0.0 0.778813001043 1.0
0.0 0.833333329015 1.0
0.0 0.880189771223 1.0
0.0 0.919607268534 1.0
0.0 0.952174380199 1.0
0.0 0.97868322382 1.0
1.0 0.0213167761802 1.0
1.0 0.0478256198006 1.0
1.0 0.0803927314655 1.0
1.0 0.119810228776 1.0
1.0 0.166666670984 1.0
1.0 0.221186998955 1.0
1.0 0.283067740058 1.0
1.0 0.35135249059 1.0
1.0 0.424401951113 1.0
1.0 0.499999999998 1.0
1.0 0.575598048883 1.0
1.0 0.648647509407 1.0
1.0 0.71693225994 1.0
1.0 0.778813001043 1.0
1.0 0.833333329015 1.0
1.0 0.880189771223 1.0
1.0 0.919607268534 1.0
1.0 0.952174380199 1.0
1.0 0.97868322382 1.0
0.97868322382 0.0 0.0213167761802
0.952174380199 0.0 0.0213167761802
0.919607268534 0.0 0.0213167761802
0.880189771223 0.0 0.0213167761802
0.833333329015 0.0 0.0213167761802
0.778813001043 0.0 0.0213167761802
0.71693225994 0.0 0.0213167761802
0.648647509407 0.0 0.0213167761802
0.575598048883 0.0 0.0213167761802
0.499999999998 0.0 0.0213167761802
0.424401951114 0.0 0.0213167761803
0.35135249059 0.0 0.0213167761803
0.283067740058 0.0 0.0213167761803
0.221186998955 0.0 0.0213167761803
0.166666670984 0.0 0.0213167761803
0.119810228776 0.0 0.0213167761803
0.0803927314655 0.0 0.0213167761803
0.0478256198006 0.0 0.0213167761803
0.0213167761802 0.0 0.0213167761803
0.97868322382 0.0 0.0478256198006
0.952174380199 0.0 0.0478256198007
0.919607268534 0.0 0.0478256198007
0.880189771223 0.0 0.0478256198007
0.833333329015 0.0 0.0478256198007
0.778813001043 0.0 0.0478256198007
0.71693225994 0.0 0.0478256198007
0.648647509407 0.0 0.0478256198008
0.575598048883 0.0 0.0478256198008
0.499999999998 0.0 0.0478256198008
0.424401951114 0.0 0.0478256198008
0.35135249059 0.0 0.0478256198008
0.283067740058 0.0 0.0478256198009
0.221186998955 0.0 0.0478256198009
0.166666670984 0.0 0.0478256198009
0.119810228776 0.0 0.0478256198009
0.0803927314655 0.0 0.0478256198009
0.0478256198007 0.0 0.0478256198009
0.0213167761802 0.0 0.0478256198009
0.97868322382 0.0 0.0803927314655
0.952174380199 0.0 0.0803927314655
0.919607268534 0.0 0.0803927314655
0.880189771223 0.0 0.0803927314655
0.833333329015 0.0 0.0803927314656
0.778813001043 0.0 0.0803927314656
0.71693225994 0.0 0.0803927314656
0.648647509407 0.0 0.0803927314657
0.575598048883 0.0 0.0803927314657
0.499999999998 0.0 0.0803927314657
0.424401951114 0.0 0.0803927314658
0.35135249059 0.0 0.0803927314658
0.283067740058 0.0 0.0803927314659
0.221186998955 0.0 0.0803927314659
0.166666670984 0.0 0.0803927314659
0.119810228776 0.0 0.080392731466
0.0803927314655 0.0 0.080392731466
0.0478256198007 0.0 0.080392731466
0.0213167761802 0.0 0.080392731466
0.97868322382 0.0 0.119810228776
0.952174380199 0.0 0.119810228776
0.919607268534 0.0 0.119810228776
0.880189771223 0.0 0.119810228776
0.833333329015 0.0 0.119810228776
0.778813001043 0.0 0.119810228777
0.71693225994 0.0 0.119810228777
0.648647509408 0.0 0.119810228777
0.575598048884 0.0 0.119810228777
0.499999999999 0.0 0.119810228777
0.424401951114 0.0 0.119810228777
0.35135249059 0.0 0.119810228777
0.283067740058 0.0 0.119810228777
0.221186998955 0.0 0.119810228777
0.166666670984 0.0 0.119810228777
0.119810228776 0.0 0.119810228777
0.0803927314655 0.0 0.119810228777
0.0478256198007 0.0 0.119810228777
0.0213167761802 0.0 0.119810228777
0.97868322382 0.0 0.166666670984
0.952174380199 0.0 0.166666670984
0.919607268534 0.0 0.166666670984
0.880189771223 0.0 0.166666670984
0.833333329015 0.0 0.166666670984
0.778813001043 0.0 0.166666670984
0.71693225994 0.0 0.166666670985
0.648647509408 0.0 0.166666670985
0.575598048884 0.0 0.166666670985
0.499999999999 0.0 0.166666670985
0.424401951114 0.0 0.166666670985
0.35135249059 0.0 0.166666670985
0.283067740058 0.0 0.166666670985
0.221186998955 0.0 0.166666670985
0.166666670984 0.0 0.166666670985
0.119810228776 0.0 0.166666670985
0.0803927314656 0.0 0.166666670985
0.0478256198007 0.0 0.166666670985
0.0213167761802 0.0 0.166666670985
0.97868322382 0.0 0.221186998955
0.952174380199 0.0 0.221186998955
0.919607268534 0.0 0.221186998955
0.880189771223 0.0 0.221186998955
0.833333329015 0.0 0.221186998955
0.778813001043 0.0 0.221186998955
0.71693225994 0.0 0.221186998956
0.648647509408 0.0 0.221186998956
0.575598048884 0.0 0.221186998956
0.499999999999 0.0 0.221186998956
0.424401951114 0.0 0.221186998956
0.351352490591 0.0 0.221186998956
0.283067740058 0.0 0.221186998956
0.221186998955 0.0 0.221186998957
0.166666670984 0.0 0.221186998957
0.119810228777 0.0 0.221186998957
0.0803927314656 0.0 0.221186998957
0.0478256198007 0.0 0.221186998957
0.0213167761802 0.0 0.221186998957
0.97868322382 0.0 0.283067740058
0.952174380199 0.0 0.283067740058
0.919607268534 0.0 0.283067740058
0.880189771223 0.0 0.283067740058
0.833333329015 0.0 0.283067740058
0.778813001044 0.0 0.283067740058
0.71693225994 0.0 0.283067740059
0.648647509408 0.0 0.283067740059
0.575598048884 0.0 0.283067740059
0.499999999999 0.0 0.283067740059
0.424401951115 0.0 0.283067740059
0.351352490591 0.0 0.28306774006
0.283067740059 0.0 0.28306774006
0.221186998956 0.0 0.28306774006
0.166666670985 0.0 0.28306774006
0.119810228777 0.0 0.28306774006
0.0803927314656 0.0 0.28306774006
0.0478256198007 0.0 0.28306774006
0.0213167761802 0.0 0.28306774006
[...]
CELL_DATA 8000
SCALARS Density float 1
LOOKUP_TABLE default
1.00000146385
0.999999223412
0.999999891027
0.999999897638
0.999999256579
0.99999995155
1.00000011376
1.00000000599
0.999999991272
1.00000000943
1.00000000041
0.999999998862
0.999999999865
0.99999999692
1.00000001263
0.999999947404
0.999999870746
1.00000032358
1.00000035776
1.00000003094
1.0000010657
0.999999852532
0.999999695115
0.99999977393
1.00000003962
1.0000000157
0.999999963718
0.999999999091
0.999999999767
1.00000001616
1.0000000002
0.999999996673
0.999999999519
1.00000000745
1.00000001657
0.999999816021
1.00000002495
1.00000072316
0.999999731372
0.999999579729
0.999996988499
1.00000745432
1.00000645306
0.999999464905
1.00000060698
0.999999989094
0.999999749641
0.999999998843
1.00000000775
0.999999995666
1.00000000017
1.00000000045
0.999999999587
1.00000000351
1.00000000753
0.999999965727
1.00000007565
0.999999991704
0.999999503254
0.999999811199
0.999998271403
1.00000299267
1.00000284621
0.999999947104
1.0000001167
0.999999975048
0.999999929267
0.999999999935
1.00000000255
0.999999991776
0.999999999979
1.0000000014
1.00000000187
1.00000000017
1.00000005059
0.99999995079
0.9999990655
1.00000001898
1.00000241106
1.00000121389
1.0000027594
0.99996853502
0.999968755415
1.00000691111
1.00000661635
0.999999781896
0.999999840882
0.999999988092
0.999999986372
1.00000000274
1.00000000021
0.999999999665
1.00000000053
0.999999999932
1.00000000971
0.999999981043
0.999999752565
1.00000008025
1.00000075218
1.00000032536
1.00000128758
0.999991083388
0.999990925288
1.00000160196
1.00000163273
0.999999989964
0.999999995322
0.999999996174
0.99999999566
1.00000000111
1.00000000014
0.999999999855
1.00000001289
0.99999997376
0.999999592956
1.00000036956
1.00000329408
0.999999612155
0.999993696572
0.999996854617
0.999997225172
1.00007771212
1.00007969571
0.999976317967
0.999975328727
1.00000194281
1.00000206755
0.999999964745
0.999999962794
0.999999998471
0.999999998621
1.00000000002
0.999999999722
1.00000000031
0.999999991532
1.00000001261
1.00000015561
0.999999958155
0.999999588391
0.999999809879
0.999999186327
1.00001210323
1.0000125976
0.999996831137
0.999996604208
1.00000018576
1.00000020663
1.00000000004
1.00000000066
0.999999999846
0.999999999775
1.00000000013
1.00000000089
0.99999999948
1.00000003258
0.999999952269
0.999999517793
1.00000012655
1.00000114525
1.00000054212
1.00000084798
0.999984930648
0.99998458848
1.00000365541
1.0000037983
0.999999868216
0.999999860914
0.999999993169
0.999999992214
1.00000000017
1.00000000018
1.00000000001
1.00000000003
0.999999999934
0.999999999419
1.00000000034
0.99999999529
1.00000000379
1.00000002752
1.00000001051
1.00000019263
0.999998357728
0.999998293284
1.00000029491
1.00000031706
1.00000000029
1.00000000062
0.999999999349
0.999999999118
1.00000000001
0.99999999999
1.0000000001
0.999999999934
0.999999999257
1.0000000012
0.999999999882
1.00000000927
0.99999998991
0.999999947645
0.99999998098
0.999999890351
1.00000057628
1.00000054606
0.999999970611
0.999999984162
0.999999989201
0.999999988285
1.00000000024
1.00000000012
1.00000000002
1.00000000002
1.00000000007
0.99999999998
0.99999999915
0.999999999998
1.00000000005
0.999999999842
1.00000000012
0.999999999987
1.00000000024
0.999999961622
1.0000001213
1.00000012987
0.999999992418
0.999999990521
0.999999999019
0.999999998873
1.00000000002
1.0
1.0000000002
0.99999999996
0.99999999416
1.00000000098
0.999999978612
0.999999997771
0.999999991498
0.999999998684
1.00000000232
1.00000000562
1.00000000473
0.999999778778
1.00000249282
1.00000281184
0.999999317096
0.999999168573
1.0000000452
1.00000006133
0.999999999722
0.99999999936
1.00000000017
0.999999999914
0.999999994833
1.00000000139
0.99999998684
0.999999998296
0.99999999328
1.00000000287
0.999999999891
1.00000000291
0.999999998408
1.00000003328
0.999999911498
0.999999888873
1.00000000922
1.00000001635
1.00000000027
1.00000000011
1.00000000014
0.999999999933
0.999999990783
1.00000000203
0.999999934098
1.00000001759
1.00000133509
0.999999987482
0.999999926211
1.00000002927
0.999999968191
1.00000010972
0.999999957795
1.00000023572
0.999999468366
0.999999184588
1.00000002399
1.00000014732
1.00000001022
0.999999998674
0.999999999783
0.99999999968
0.999999989496
1.00000000248
0.999999945699
1.00000000954
1.00000112297
1.00000000092
0.999999930104
1.00000003136
0.999999898638
0.999999719279
0.999999892808
0.99999996803
1.00000000887
1.0000000297
1.00000000623
1.00000000162
0.999999999839
0.999999999614
0.999999995395
1.00000000057
0.999999963155
1.00000002408
1.00000236594
0.999999355943
0.999983566854
1.00000082643
1.00000401316
1.00000130146
0.999999125107
0.999994234453
0.999998006315
0.999999897427
1.00000002896
1.00000010781
1.00000002369
1.00000000104
0.999999998828
0.999999998867
0.99999999392
1.00000000048
0.999999983175
1.00000002085
1.00000218775
0.999999423814
0.999985094523
1.00000076847
1.00000356525
0.99999981122
1.00000026568
1.00000018361
1.00000005883
1.00000001075
1.00000000929
1.00000000562
1.00000000043
0.999999997828
0.999999999076
0.999999999982
0.999999992502
1.00000000558
1.00000057785
0.999999752176
0.999989871235
1.0000029689
1.00005410688
0.999996712049
0.999979408696
0.999986655667
1.00000790176
1.0000378869
1.00001578005
1.00000003058
1.00000001556
1.00000000263
0.999999998325
0.999999998217
0.999999998882
0.999999999691
0.999999996967
1.00000000596
1.00000052606
0.999999759524
0.999990294988
1.00000283175
1.000051083
0.999996543281
0.99998093331
0.999992247734
1.00000489796
1.00002144954
1.00000942709
1.00000000323
1.00000000063
1.00000000006
1.0000000002
1.00000000095
0.999999999049
1.00000000008
1.00000001775
0.999999995282
0.999999855436
1.00000005453
1.00000073703
0.999999747005
0.999997041441
0.999999413645
1.00000348603
1.00000862152
0.999996149401
0.99998123896
0.999992137182
1.00000078822
0.999999962328
1.00000030281
0.999999940342
0.999999590838
0.999999966378
1.00000005544
1.00000000313
0.999999995069
1.00000000511
1.00000000019
0.999999999529
1.00000000005
0.999999997154
1.00000000524
0.999999984308
0.999999932682
1.00000015105
1.00000019701
1.00000003132
1.00000054931
1.0000001299
1.00000007356
0.99999989564
1.00000002188
0.999999999567
0.999999980467
0.999999999978
0.999999998964
1.0000000094
1.00000000012
0.99999999827
1.00000000003
1.00000000144
1.00000000961
0.999999916235
0.999999968584
1.0000003671
0.99999995788
0.999999848393
0.999998162976
1.00000291533
1.00000246228
1.00000001294
1.00000058378
0.999999984684
0.999999876766
0.999999999391
1.00000000136
0.999999997443
1.00000000013
1.00000000029
0.999999999925
1.00000000106
1.00000000514
0.999999981109
1.0000000083
1.0000000015
0.999999807046
0.999999939491
0.99999899357
1.00000107548
1.00000100569
1.00000008687
1.00000017755
0.999999987826
0.99999996468
0.999999999587
1.00000000057
0.999999995613
1.00000000003
1.00000000062
1.00000000145
0.999999999217
1.00000000864
0.999999980273
0.999999605662
1.00000003889
1.00000118963
1.00000056755
1.00000191015
0.999983998091
0.99998412656
1.000002974
1.00000281385
0.999999981428
1.00000000888
0.999999992035
0.999999991646
1.00000000166
0.999999999982
0.999999999806
1.00000000034
0.999999999754
1.00000000045
0.999999993578
0.999999903558
1.00000004334
1.00000035348
1.00000014353
1.00000085247
0.999995644497
0.999995563659
1.00000060411
1.00000061531
1.00000001947
1.00000002281
0.999999998056
0.999999997862
1.00000000049
1.00000000011
0.999999999744
1.00000000378
0.999999990257
0.999999806796
1.00000019037
1.00000176268
0.999999749391
0.999996442449
0.999998242106
0.999998072213
1.00004407931
1.00004522354
0.999987346976
0.999986798356
1.0000008915
1.00000095132
0.999999994658
0.999999994989
0.999999998971
0.999999999026
0.999999999999
0.999999999763
1.00000000038
0.999999998561
1.00000000401
1.00000006568
0.999999977148
0.999999796843
0.999999909603
0.999999440948
1.00000668355
1.00000696361
0.999998406003
0.999998285273
1.0000000701
1.00000007832
1.00000000137
1.00000000201
0.999999999941
0.999999999913
1.00000000005
1.00000000084
0.999999998815
1.0000000076
0.999999982166
0.999999784736
1.00000007426
1.00000058774
1.00000026948
1.00000061141
0.999992101837
0.999991923602
1.00000164411
1.00000171034
0.999999983641
0.999999983083
0.999999995163
0.999999994522
1.00000000001
1.00000000001
1.0
1.0
0.999999999977
0.999999999579
1.00000000042
0.999999999664
1.0000000016
1.00000001097
1.00000000335
1.00000013565
0.999999173864
0.99999914107
1.00000011133
1.00000012051
1.00000000483
1.00000000564
0.999999999714
0.999999999597
0.999999999999
0.999999999987
0.999999999992
1.00000000001
0.999999999445
1.00000000088
0.99999999927
1.00000000059
0.999999995375
0.99999997898
0.999999994224
0.999999920146
1.00000023065
1.00000021328
1.00000001547
1.00000002237
0.999999993654
0.99999999353
0.999999999953
0.999999999852
1.00000000001
1.00000000001
0.999999999984
1.0
0.99999999948
0.999999999977
0.999999999964
0.999999999932
1.00000000008
1.00000000013
1.00000000016
0.999999974507
1.00000005147
1.00000005533
1.00000000072
1.00000000024
0.999999999453
0.999999999341
0.999999999995
0.999999999983
0.999999999954
1.00000000002
0.99999999626
1.0000000006
0.999999998329
0.999999998826
0.999999995098
0.999999999818
1.00000000056
1.00000000281
1.0000000016
0.999999857792
1.0000014423
1.00000162398
0.999999635472
0.999999556043
1.00000001923
1.00000002642
1.00000000017
1.00000000011
0.999999999939
0.999999999998
0.9999999968
1.00000000079
1.00000000115
0.99999999932
0.999999995999
1.00000000146
0.999999998704
0.999999998928
0.99999999792
1.00000002013
0.999999959255
0.999999948269
1.00000000241
1.00000000519
1.00000000023
1.00000000031
0.999999999923
0.999999999996
0.999999994451
1.00000000136
1.00000000276
1.00000000053
1.00000060624
1.0000000077
1.00000001912
1.00000002805
0.999999971972
0.999999998074
0.999999947681
1.00000014596
0.999999738728
0.999999582504
0.999999995587
1.0000000586
1.00000000621
1.00000000153
0.999999999806
0.999999999868
0.999999994009
1.00000000155
1.00000000468
0.999999996994
1.0000005003
1.00000001209
1.00000001161
1.00000000129
0.999999955239
0.999999875911
0.99999995408
0.999999982652
1.00000000008
1.00000000934
1.00000000334
1.00000000204
1.00000000001
0.999999999862
0.999999997399
1.00000000048
1.00000000767
1.00000000312
1.00000103483
0.999999724268
0.999991231316
1.00000034419
1.00000162137
1.00000033875
0.999999780706
0.999997728524
0.999999381144
0.999999942621
1.00000000228
1.00000003919
1.00000001282
1.0000000047
0.999999999914
0.999999999527
0.999999996803
1.00000000043
1.00000001716
1.0000000019
1.00000095549
0.999999757056
0.99999207081
1.0000002952
1.00000146268
0.999999836881
1.00000028934
1.00000039075
1.00000019978
1.00000000348
1.00000000477
1.00000000417
1.00000000092
0.999999999248
0.999999999531
1.00000000001
1.00000000052
1.00000000153
1.0000002475
0.999999889817
0.999994725741
1.00000152837
1.00003069615
0.999998222857
0.999989826642
0.999994192788
1.00000345295
1.00001811731
1.00000731581
1.00000001277
1.00000000872
1.00000000475
1.00000000052
0.99999999969
0.999999999453
0.999999999854
1.00000000266
1.00000000176
1.00000022037
0.999999892659
0.999994938851
1.0000014565
1.0000289803
0.999998196826
0.999990515049
0.999996673062
1.0000019608
1.00000999276
1.00000430998
1.00000000101
0.999999999975
1.00000000006
1.00000000013
1.00000000057
0.999999999653
1.00000000008
1.00000001063
0.999999997011
0.999999901411
1.00000003752
1.00000050825
0.999999816175
0.999998072916
0.999999777915
1.00000212537
1.00000465902
0.999997851528
0.999989595938
0.999995623274
1.00000005824
1.00000010229
1.00000011848
0.999999998489
0.99999997696
0.999999994623
1.00000000024
1.00000000011
0.999999999522
1.00000000041
1.00000000001
0.999999999988
1.00000000003
0.999999999469
0.999999999878
1.00000000227
0.999999996491
1.0000000036
1.00000001321
1.00000000569
1.00000003378
1.00000006628
1.00000007002
1.00000000018
1.00000000428
0.999999996857
0.999999997629
1.00000000008
0.999999999628
1.00000000078
1.00000000002
0.999999999896
1.00000000012
0.999999999331
1.00000000054
0.999999998587
0.99999998603
1.00000001728
1.00000002403
1.00000001049
0.999999828787
0.999999898624
0.99999989245
1.00000008409
1.00000010855
0.999999997117
0.999999995513
0.999999999814
0.999999999162
0.999999999815
1.00000000002
1.00000000002
1.00000000005
0.999999999799
1.00000000047
0.999999998659
0.999999991994
1.00000000184
1.00000000733
1.00000000712
0.99999991556
0.999999927769
0.999999925612
1.0000000373
1.00000004278
1.00000000007
0.999999998851
0.999999999809
0.999999999768
0.99999999971
1.00000000002
0.999999999997
1.00000000023
0.99999999965
0.999999995196
1.00000000062
1.00000000343
1.00000001066
1.00000004743
1.00000001467
1.00000019643
0.999999226939
0.999999236665
0.999999995033
0.99999998447
1.00000002822
1.00000002891
0.999999998995
0.99999999913
1.00000000011
0.999999999941
0.999999999975
1.00000000003
0.999999999927
0.999999998691
1.00000000063
1.00000000361
1.00000000293
1.00000000902
1.00000000097
1.0000000838
0.999999835608
0.999999831558
0.999999969407
0.999999968689
1.00000000891
1.0000000093
0.999999999944
0.99999999996
0.999999999995
1.00000000002
0.99999999992
0.99999999933
1.00000000056
0.999999993922
1.00000001047
1.00000010944
0.999999975242
0.999999742342
0.999999875352
0.999999810032
1.00000327037
1.00000335915
0.999999207245
0.99999916795
1.00000001933
1.00000002169
1.00000000377
1.00000000419
0.999999999848
0.999999999846
0.999999999995
0.999999999956
1.0000000001
1.00000000082
0.999999999487
0.999999999409
0.999999998343
0.999999991897
0.999999997204
0.999999944804
1.00000045552
1.0000004761
0.999999924496
0.999999917037
0.999999996434
0.999999996288
1.00000000054
1.00000000068
1.00000000001
1.00000000001
0.99999999999
1.00000000018
0.999999999602
0.999999997526
1.00000000094
0.999999997639
1.00000000673
1.00000003016
1.00000001223
1.00000006075
0.999999552274
0.999999542588
1.00000002396
1.0000000256
1.00000001556
1.0000000165
0.999999999263
0.999999999165
0.99999999996
0.999999999956
0.999999999999
0.999999999993
1.0
0.999999999941
1.00000000011
1.00000000063
1.00000000001
0.999999999693
0.999999999599
1.00000001359
0.999999961185
0.999999959606
0.99999999441
0.999999994318
1.00000000188
1.00000000213
1.00000000002
1.00000000001
0.999999999997
0.999999999996
0.999999999969
1.00000000002
0.999999999897
1.00000000013
0.999999999708
0.99999999871
0.999999999852
1.00000000052
1.00000000082
0.999999990464
0.999999994347
0.999999992958
1.00000001079
1.0000000112
0.999999999417
0.999999999506
0.999999999912
0.999999999893
0.999999999998
0.999999999999
0.999999999972
1.00000000001
0.999999999939
0.999999999989
0.99999999997
1.00000000001
1.00000000001
1.00000000004
1.00000000002
0.999999997293
0.999999999794
0.999999999845
1.00000000156
1.00000000169
0.999999999975
0.999999999954
0.999999999991
0.99999999999
0.999999999924
1.00000000002
0.999999999528
1.00000000006
1.00000000291
0.99999999996
0.999999999608
1.0000000002
0.999999999757
1.00000000002
0.999999999722
0.999999987825
1.00000011406
1.00000012761
0.999999976516
0.999999971447
0.999999999915
1.00000000001
1.00000000012
1.00000000016
0.999999999926
1.00000000002
0.999999999634
1.00000000007
1.00000000264
1.00000000007
0.99999999962
1.00000000002
0.999999999449
0.999999999119
0.999999999401
1.00000000173
0.999999999127
0.999999998741
0.999999999436
0.999999999329
1.00000000004
1.0000000001
0.999999999924
1.00000000002
0.999999999427
1.00000000017
1.00000001202
0.999999997318
1.00000001141
1.00000000519
1.00000001889
1.00000000472
0.999999995182
0.999999983069
0.999999987483
1.00000001237
0.999999988907
0.999999978456
0.999999995102
0.999999998297
1.00000000073
1.00000000084
0.999999999945
1.00000000001
0.999999999468
1.00000000017
1.00000001087
0.999999997372
1.00000000634
1.00000000441
1.0000000157
0.999999995457
0.999999999862
0.999999998753
0.999999999503
0.999999998802
0.99999999874
0.999999998819
1.00000000025
1.00000000049
1.00000000003
1.00000000002
0.9999999998
1.00000000008
1.00000000894
0.999999997255
1.00000000609
1.0000000013
0.999999451227
0.999999994254
0.999999960851
0.999999924091
1.00000005416
1.00000007545
1.00000008357
0.999999995771
0.999999996669
0.999999997568
1.00000000103
1.0000000016
1.00000000017
1.00000000004
0.999999999811
1.00000000008
1.00000000916
0.999999997339
1.0000000051
1.00000000222
0.999999508869
0.999999986239
0.999999972684
0.999999972044
1.00000005951
1.00000010344
1.00000006121
0.999999999658
1.00000000027
1.00000000058
1.0000000003
1.00000000013
0.999999999984
1.00000000001
1.00000000137
0.999999999686
0.999999999887
0.999999998862
0.999999708415
1.00000007901
1.0000022783
0.999999881834
0.999999588428
0.999999991729
1.00000001174
1.00000054892
1.00000016348
0.999999999929
1.0000000007
1.00000000123
1.00000000051
1.00000000026
0.999999999989
0.999999999994
1.00000000144
0.999999999706
0.999999998467
0.999999998744
0.999999718101
1.00000007502
1.00000215152
0.999999897105
0.999999597317
1.0000000099
0.999999950958
1.00000023274
1.00000008224
0.999999999832
0.999999999868
0.99999999997
1.00000000001
1.00000000006
1.00000000003
1.00000000002
1.00000000114
0.999999999659
0.999999989668
1.00000000406
1.00000004743
0.999999979924
0.999999824776
1.00000000315
1.00000017677
1.00000029225
0.999999849833
0.999999298962
0.99999970534
0.999999975527
1.00000001546
0.999999999485
1.00000000436
1.00000002278
1.00000000053
0.999999995927
0.999999999801
1.00000000008
0.999999999917
0.999999999994
1.0
1.0
1.00000000005
0.999999999764
1.00000000068
1.00000000298
0.999999993156
0.999999990715
0.999999998543
0.99999998216
1.0000000026
1.0000000052
1.00000000608
1.00000000115
0.999999999379
0.999999999818
0.999999999965
0.999999999955
0.999999999613
0.999999999999
1.00000000007
1.00000000003
0.999999999821
0.999999999481
1.0000000036
1.00000000005
0.999999983013
1.000000003
1.00000000838
1.00000008181
0.999999860671
0.999999881658
1.00000000986
0.99999998382
1.00000000081
1.00000000536
0.999999999927
0.999999999756
1.0000000002
0.999999999993
0.999999999977
1.00000000002
0.999999999903
0.999999999745
1.00000000071
0.999999998888
1.00000000018
1.00000000959
1.00000000339
1.00000004279
0.999999945732
0.999999948718
1.00000000056
0.99999999641
1.00000000088
1.00000000172
0.999999999972
0.999999999925
1.00000000018
1.0
0.999999999965
0.999999999959
0.99999999996
0.999999998874
1.00000000102
1.00000001812
0.99999999955
0.999999947223
0.999999975957
0.999999862557
1.0000007051
1.00000069766
0.999999867798
0.999999874984
1.00000000553
1.00000000435
1.00000000026
1.0000000003
0.999999999896
0.999999999981
0.999999999998
0.999999999982
1.0
0.999999999804
1.00000000038
1.00000000474
0.9999999983
0.999999983995
0.999999993551
0.999999945398
1.00000018786
1.00000019135
0.999999970237
0.999999969712
1.00000000066
1.00000000058
1.00000000012
1.00000000014
0.999999999973
0.999999999998
0.999999999992
0.999999999712
1.0000000005
1.00000000782
0.999999992507
0.999999922772
1.00000001387
1.00000017352
1.00000008289
1.0000001628
0.999997888615
0.999997832457
1.00000053673
1.00000056045
0.999999964166
0.999999962175
1.00000000094
1.00000000098
1.00000000002
1.00000000002
0.999999999998
1.0
1.0
1.00000000019
0.999999999753
0.999999996978
1.00000000083
1.00000000901
1.00000000378
1.00000004462
0.999999687297
0.99999967365
1.00000006547
1.00000007046
0.9999999965
0.999999996287
1.00000000005
1.00000000005
1.00000000001
1.00000000001
0.999999999991
0.999999999992
0.999999999962
0.999999999198
1.00000000088
1.00000000927
0.999999997387
0.999999974703
0.999999989496
0.999999944435
1.00000034326
1.00000035119
0.999999931972
0.999999929345
1.00000000367
1.00000000382
1.00000000011
1.00000000011
0.999999999983
0.999999999981
0.999999999999
0.999999999996
1.0
1.00000000001
1.00000000001
1.00000000012
0.999999999945
0.999999999488
0.999999999809
0.999999989181
1.00000003422
1.00000003567
0.99999999451
0.99999999415
1.00000000019
1.0000000002
1.00000000003
1.00000000004
0.999999999999
1.0
0.999999999989
1.00000000001
1.0
0.999999999972
0.99999999996