# vtk DataFile Version 2.0
20001 -th Step
ASCII
DATASET UNSTRUCTURED_GRID
POINTS 9261 float
0.0 0.0 0.0
1.0 0.0 0.0
0.0 1.0 0.0
1.0 1.0 0.0
1.0 1.0 1.0
1.0 0.0 1.0
0.0 1.0 1.0
0.0 0.0 1.0
0.0 1.0 0.0213167761802
0.0 1.0 0.0478256198006
0.0 1.0 0.0803927314655
0.0 1.0 0.119810228776
0.0 1.0 0.166666670984
0.0 1.0 0.221186998955
0.0 1.0 0.283067740058
0.0 1.0 0.35135249059
0.0 1.0 0.424401951113
0.0 1.0 0.499999999998
0.0 1.0 0.575598048883
0.0 1.0 0.648647509407
0.0 1.0 0.71693225994
0.0 1.0 0.778813001043
0.0 1.0 0.833333329015
0.0 1.0 0.880189771223
0.0 1.0 0.919607268534
0.0 1.0 0.952174380199
0.0 1.0 0.97868322382
0.0213167761802 1.0 1.0
0.0478256198006 1.0 1.0
0.0803927314655 1.0 1.0
0.119810228776 1.0 1.0
0.166666670984 1.0 1.0
0.221186998955 1.0 1.0
0.283067740058 1.0 1.0
0.35135249059 1.0 1.0
0.424401951113 1.0 1.0
0.499999999998 1.0 1.0
0.575598048883 1.0 1.0
0.648647509407 1.0 1.0
0.71693225994 1.0 1.0
0.778813001043 1.0 1.0
0.833333329015 1.0 1.0
0.880189771223 1.0 1.0
0.919607268534 1.0 1.0
0.952174380199 1.0 1.0
0.97868322382 1.0 1.0
1.0 1.0 0.97868322382
1.0 1.0 0.952174380199
1.0 1.0 0.919607268534
1.0 1.0 0.880189771223
1.0 1.0 0.833333329015
1.0 1.0 0.778813001044
1.0 1.0 0.716932259942
1.0 1.0 0.64864750941
1.0 1.0 0.575598048887
1.0 1.0 0.500000000002
1.0 1.0 0.424401951117
1.0 1.0 0.351352490593
1.0 1.0 0.28306774006
1.0 1.0 0.221186998957
1.0 1.0 0.166666670985
1.0 1.0 0.119810228777
1.0 1.0 0.080392731466
1.0 1.0 0.047825619801
1.0 1.0 0.0213167761803
0.97868322382 1.0 0.0
0.952174380199 1.0 0.0
0.919607268534 1.0 0.0
0.880189771223 1.0 0.0
0.833333329015 1.0 0.0
0.778813001044 1.0 0.0
0.716932259942 1.0 0.0
0.64864750941 1.0 0.0
0.575598048887 1.0 0.0
0.500000000002 1.0 0.0
0.424401951117 1.0 0.0
0.351352490593 1.0 0.0
0.28306774006 1.0 0.0
0.221186998957 1.0 0.0
0.166666670985 1.0 0.0
0.119810228777 1.0 0.0
0.080392731466 1.0 0.0
0.047825619801 1.0 0.0
0.0213167761803 1.0 0.0
0.0 0.97868322382 0.0
0.0 0.952174380199 0.0
0.0 0.919607268534 0.0
0.0 0.880189771223 0.0
0.0 0.833333329015 0.0
0.0 0.778813001044 0.0
0.0 0.716932259942 0.0
0.0 0.64864750941 0.0
0.0 0.575598048887 0.0
0.0 0.500000000002 0.0
0.0 0.424401951117 0.0
0.0 0.351352490593 0.0
0.0 0.28306774006 0.0
0.0 0.221186998957 0.0
0.0 0.166666670985 0.0
0.0 0.119810228777 0.0
0.0 0.080392731466 0.0
0.0 0.047825619801 0.0
0.0 0.0213167761803 0.0
1.0 0.0213167761802 0.0
1.0 0.0478256198006 0.0
1.0 0.0803927314655 0.0
1.0 0.119810228776 0.0
1.0 0.166666670984 0.0
1.0 0.221186998955 0.0
1.0 0.283067740058 0.0
1.0 0.35135249059 0.0
1.0 0.424401951113 0.0
1.0 0.499999999998 0.0
1.0 0.575598048883 0.0
1.0 0.648647509407 0.0
1.0 0.71693225994 0.0
1.0 0.778813001043 0.0
1.0 0.833333329015 0.0
1.0 0.880189771223 0.0
1.0 0.919607268534 0.0
1.0 0.952174380199 0.0
1.0 0.97868322382 0.0
1.0 0.0 0.0213167761802
1.0 0.0 0.0478256198006
1.0 0.0 0.0803927314655
1.0 0.0 0.119810228776
1.0 0.0 0.166666670984
1.0 0.0 0.221186998955
1.0 0.0 0.283067740058
1.0 0.0 0.35135249059
1.0 0.0 0.424401951113
1.0 0.0 0.499999999998
1.0 0.0 0.575598048883
1.0 0.0 0.648647509407
1.0 0.0 0.71693225994
1.0 0.0 0.778813001043
1.0 0.0 0.833333329015
1.0 0.0 0.880189771223
1.0 0.0 0.919607268534
1.0 0.0 0.952174380199
1.0 0.0 0.97868322382
0.97868322382 0.0 1.0
0.952174380199 0.0 1.0
0.919607268534 0.0 1.0
0.880189771223 0.0 1.0
0.833333329015 0.0 1.0
0.778813001044 0.0 1.0
0.716932259942 0.0 1.0
0.64864750941 0.0 1.0
0.575598048887 0.0 1.0
0.500000000002 0.0 1.0
0.424401951117 0.0 1.0
0.351352490593 0.0 1.0
0.28306774006 0.0 1.0
0.221186998957 0.0 1.0
0.166666670985 0.0 1.0
0.119810228777 0.0 1.0
0.080392731466 0.0 1.0
0.047825619801 0.0 1.0
0.0213167761803 0.0 1.0
0.0 0.0 0.97868322382
0.0 0.0 0.952174380199
0.0 0.0 0.919607268534
0.0 0.0 0.880189771223
0.0 0.0 0.833333329015
0.0 0.0 0.778813001044
0.0 0.0 0.716932259942
0.0 0.0 0.64864750941
0.0 0.0 0.575598048887
0.0 0.0 0.500000000002
0.0 0.0 0.424401951117
0.0 0.0 0.351352490593
0.0 0.0 0.28306774006
0.0 0.0 0.221186998957
0.0 0.0 0.166666670985
0.0 0.0 0.119810228777
0.0 0.0 0.080392731466
0.0 0.0 0.047825619801
0.0 0.0 0.0213167761803
0.0213167761802 0.0 0.0
0.0478256198006 0.0 0.0
0.0803927314655 0.0 0.0
0.119810228776 0.0 0.0
0.166666670984 0.0 0.0
0.221186998955 0.0 0.0
0.283067740058 0.0 0.0
0.35135249059 0.0 0.0
0.424401951113 0.0 0.0
0.499999999998 0.0 0.0
0.575598048883 0.0 0.0
0.648647509407 0.0 0.0
0.71693225994 0.0 0.0
0.778813001043 0.0 0.0
0.833333329015 0.0 0.0
0.880189771223 0.0 0.0
0.919607268534 0.0 0.0
0.952174380199 0.0 0.0
0.97868322382 0.0 0.0
0.0 0.0213167761802 1.0
0.0 0.0478256198006 1.0
0.0 0.0803927314655 1.0
0.0 0.119810228776 1.0
0.0 0.166666670984 1.0
0.0 0.221186998955 1.0
0.0 0.283067740058 1.0
0.0 0.35135249059 1.0
0.0 0.424401951113 1.0
0.0 0.499999999998 1.0
0.0 0.575598048883 1.0
0.0 0.648647509407 1.0
0.0 0.71693225994 1.0
0.0 0.778813001043 1.0
0.0 0.833333329015 1.0
0.0 0.880189771223 1.0
0.0 0.919607268534 1.0
0.0 0.952174380199 1.0
0.0 0.97868322382 1.0
1.0 0.0213167761802 1.0
1.0 0.0478256198006 1.0
1.0 0.0803927314655 1.0
1.0 0.119810228776 1.0
1.0 0.166666670984 1.0
1.0 0.221186998955 1.0
1.0 0.283067740058 1.0
1.0 0.35135249059 1.0
1.0 0.424401951113 1.0
1.0 0.499999999998 1.0
1.0 0.575598048883 1.0
1.0 0.648647509407 1.0
1.0 0.71693225994 1.0
1.0 0.778813001043 1.0
1.0 0.833333329015 1.0
1.0 0.880189771223 1.0
1.0 0.919607268534 1.0
1.0 0.952174380199 1.0
1.0 0.97868322382 1.0
0.97868322382 0.0 0.0213167761802
0.952174380199 0.0 0.0213167761802
0.919607268534 0.0 0.0213167761802
0.880189771223 0.0 0.0213167761802
0.833333329015 0.0 0.0213167761802
0.778813001043 0.0 0.0213167761802
0.71693225994 0.0 0.0213167761802
0.648647509407 0.0 0.0213167761802
0.575598048883 0.0 0.0213167761802
0.499999999998 0.0 0.0213167761802
0.424401951114 0.0 0.0213167761803
0.35135249059 0.0 0.0213167761803
0.283067740058 0.0 0.0213167761803
0.221186998955 0.0 0.0213167761803
0.166666670984 0.0 0.0213167761803
0.119810228776 0.0 0.0213167761803
0.0803927314655 0.0 0.0213167761803
0.0478256198006 0.0 0.0213167761803
0.0213167761802 0.0 0.0213167761803
0.97868322382 0.0 0.0478256198006
0.952174380199 0.0 0.0478256198007
0.919607268534 0.0 0.0478256198007
0.880189771223 0.0 0.0478256198007
0.833333329015 0.0 0.0478256198007
0.778813001043 0.0 0.0478256198007
0.71693225994 0.0 0.0478256198007
0.648647509407 0.0 0.0478256198008
0.575598048883 0.0 0.0478256198008
0.499999999998 0.0 0.0478256198008
0.424401951114 0.0 0.0478256198008
0.35135249059 0.0 0.0478256198008
0.283067740058 0.0 0.0478256198009
0.221186998955 0.0 0.0478256198009
0.166666670984 0.0 0.0478256198009
0.119810228776 0.0 0.0478256198009
0.0803927314655 0.0 0.0478256198009
0.0478256198007 0.0 0.0478256198009
0.0213167761802 0.0 0.0478256198009
0.97868322382 0.0 0.0803927314655
0.952174380199 0.0 0.0803927314655
0.919607268534 0.0 0.0803927314655
0.880189771223 0.0 0.0803927314655
0.833333329015 0.0 0.0803927314656
0.778813001043 0.0 0.0803927314656
0.71693225994 0.0 0.0803927314656
0.648647509407 0.0 0.0803927314657
0.575598048883 0.0 0.0803927314657
0.499999999998 0.0 0.0803927314657
0.424401951114 0.0 0.0803927314658
0.35135249059 0.0 0.0803927314658
0.283067740058 0.0 0.0803927314659
0.221186998955 0.0 0.0803927314659
0.166666670984 0.0 0.0803927314659
0.119810228776 0.0 0.080392731466
0.0803927314655 0.0 0.080392731466
0.0478256198007 0.0 0.080392731466
0.0213167761802 0.0 0.080392731466
0.97868322382 0.0 0.119810228776
0.952174380199 0.0 0.119810228776
0.919607268534 0.0 0.119810228776
0.880189771223 0.0 0.119810228776
0.833333329015 0.0 0.119810228776
0.778813001043 0.0 0.119810228777
0.71693225994 0.0 0.119810228777
0.648647509408 0.0 0.119810228777
0.575598048884 0.0 0.119810228777
0.499999999999 0.0 0.119810228777
0.424401951114 0.0 0.119810228777
0.35135249059 0.0 0.119810228777
0.283067740058 0.0 0.119810228777
0.221186998955 0.0 0.119810228777
0.166666670984 0.0 0.119810228777
0.119810228776 0.0 0.119810228777
0.0803927314655 0.0 0.119810228777
0.0478256198007 0.0 0.119810228777
0.0213167761802 0.0 0.119810228777
0.97868322382 0.0 0.166666670984
0.952174380199 0.0 0.166666670984
0.919607268534 0.0 0.166666670984
0.880189771223 0.0 0.166666670984
0.833333329015 0.0 0.166666670984
0.778813001043 0.0 0.166666670984
0.71693225994 0.0 0.166666670985
0.648647509408 0.0 0.166666670985
0.575598048884 0.0 0.166666670985
0.499999999999 0.0 0.166666670985
0.424401951114 0.0 0.166666670985
0.35135249059 0.0 0.166666670985
0.283067740058 0.0 0.166666670985
0.221186998955 0.0 0.166666670985
0.166666670984 0.0 0.166666670985
0.119810228776 0.0 0.166666670985
0.0803927314656 0.0 0.166666670985
0.0478256198007 0.0 0.166666670985
0.0213167761802 0.0 0.166666670985
0.97868322382 0.0 0.221186998955
0.952174380199 0.0 0.221186998955
0.919607268534 0.0 0.221186998955
0.880189771223 0.0 0.221186998955
0.833333329015 0.0 0.221186998955
0.778813001043 0.0 0.221186998955
0.71693225994 0.0 0.221186998956
0.648647509408 0.0 0.221186998956
0.575598048884 0.0 0.221186998956
0.499999999999 0.0 0.221186998956
0.424401951114 0.0 0.221186998956
0.351352490591 0.0 0.221186998956
0.283067740058 0.0 0.221186998956
0.221186998955 0.0 0.221186998957
0.166666670984 0.0 0.221186998957
0.119810228777 0.0 0.221186998957
0.0803927314656 0.0 0.221186998957
0.0478256198007 0.0 0.221186998957
0.0213167761802 0.0 0.221186998957
0.97868322382 0.0 0.283067740058
0.952174380199 0.0 0.283067740058
0.919607268534 0.0 0.283067740058
0.880189771223 0.0 0.283067740058
0.833333329015 0.0 0.283067740058
0.778813001044 0.0 0.283067740058
0.71693225994 0.0 0.283067740059
0.648647509408 0.0 0.283067740059
0.575598048884 0.0 0.283067740059
0.499999999999 0.0 0.283067740059
0.424401951115 0.0 0.283067740059
0.351352490591 0.0 0.28306774006
0.283067740059 0.0 0.28306774006
0.221186998956 0.0 0.28306774006
0.166666670985 0.0 0.28306774006
0.119810228777 0.0 0.28306774006
0.0803927314656 0.0 0.28306774006
0.0478256198007 0.0 0.28306774006
0.0213167761802 0.0 0.28306774006
[...]
CELL_DATA 8000
SCALARS Density float 1
LOOKUP_TABLE default
1.00000973032
0.999990919775
0.999995582635
0.999999222516
0.999994962892
0.999999774965
1.00000084462
1.00000004207
0.999999946096
1.00000006149
1.00000000292
0.999999991055
0.999999997841
0.999999992097
1.00000010217
0.999999515936
0.999999104638
1.00000240385
1.00000235654
1.00000005888
1.00000734249
0.999996879241
0.999995532144
0.999998221002
1.0000001659
1.00000020969
0.999999771402
0.999999989762
1.00000000935
1.00000010033
1.00000000113
0.9999999772
0.999999993075
1.00000007788
1.00000011296
0.999998607046
1.00000061222
1.00000506332
0.999997153025
0.9999964151
0.999982132002
1.00006122951
1.00005363945
0.999993329321
1.00000142634
0.999999996178
0.999998176239
0.999999994483
1.00000008429
0.999999972523
1.00000000086
1.00000000266
0.999999995327
1.0000000333
1.00000004429
0.999999772129
1.00000082986
0.999999879051
0.999995912495
0.999998312404
0.999989255579
1.00002555497
1.0000244802
0.9999984856
0.999999626915
0.999999803458
0.999999482721
1.00000000435
1.00000002641
0.999999944537
0.999999999371
1.00000001084
1.00000000843
1.00000001098
1.00000053709
0.999999595227
0.999992603951
0.999999823186
1.00001725965
1.00000900926
1.00001436801
0.999779658079
0.999781032093
1.00005416437
1.00005221293
0.999997465555
0.999997904417
0.999999934348
0.999999917153
1.00000001672
1.00000000314
0.999999997998
1.00000000333
1.00000000161
1.00000011444
0.999999833155
0.999997961546
1.00000053534
1.00000556625
1.00000250506
1.0000070492
0.99993571638
0.999934612677
1.00001346926
1.00001373252
0.999999664037
0.999999694593
0.999999971677
0.999999967263
1.00000000863
1.00000000063
1.00000000104
1.00000012094
0.999999776819
0.999997004492
1.00000255817
1.00002214817
0.999997827793
0.999959444571
0.999979605883
0.999985375025
1.00049738409
1.0005098928
0.999840655889
0.999834210187
1.00001463788
1.00001554465
0.999999612603
0.999999584054
0.999999992008
0.99999999329
1.00000000028
0.999999999022
0.999999999842
0.999999909852
1.00000011438
1.00000123228
0.999999724762
0.999997053461
0.999998604269
0.999995671284
1.00007932003
1.00008249106
0.999977639229
0.999976108825
1.00000156582
1.00000173673
0.999999985345
0.999999985866
0.999999998627
0.999999997982
1.00000000121
1.00000000219
1.00000000677
1.00000032753
0.999999595482
0.99999630178
1.00000077545
1.00000796265
1.00000385387
1.00000426002
0.999896927196
0.999894572807
1.00002790037
1.00002896846
0.99999851104
0.999998424728
0.999999966366
0.999999961467
1.00000000227
1.00000000251
1.00000000006
1.00000000041
0.999999999367
0.999999997044
0.99999999967
0.999999944969
1.00000003009
1.00000022444
1.00000009489
1.00000098601
0.999988415254
0.999987963884
1.00000248474
1.00000266201
0.999999949679
0.999999944845
0.999999994557
0.999999992918
1.00000000014
1.00000000003
1.00000000154
0.999999998966
0.99999999683
1.00000000595
1.00000000692
1.00000010986
0.99999992412
0.999999574051
0.999999824871
0.999999485938
1.00000469503
1.0000045041
0.999999458464
0.999999552791
0.999999931112
0.999999920964
1.00000000402
1.00000000362
1.00000000019
1.00000000014
1.00000000123
0.999999999704
0.999999994909
1.00000000026
1.00000000113
0.999999998606
1.00000000072
0.99999999862
1.0000000013
0.999999794712
1.0000009573
1.00000102246
0.999999896438
0.999999877827
0.999999993106
0.99999999248
1.00000000037
1.00000000027
1.00000000339
0.999999999214
0.999999966852
1.00000000618
0.999999746924
0.999999983875
0.999999944267
0.999999984252
1.00000002459
1.00000004306
1.00000004457
0.99999872022
1.00001565417
1.00001768986
0.999995407073
0.999994409295
1.00000035797
1.00000048188
0.999999994455
0.999999990513
1.00000000317
0.999999998818
0.999999969352
1.00000000903
0.999999819727
0.999999984919
0.999999957635
1.00000002177
1.00000001392
1.00000004777
1.00000000354
1.00000019985
0.999999335819
0.999999171857
1.00000008923
1.0000001482
1.00000000088
0.999999998103
1.00000000302
0.999999999085
0.99999994314
1.00000001131
0.999999131847
1.00000021541
1.00001012543
0.999999753885
0.999998870375
1.00000008956
0.999999889605
1.00000135574
1.00000002868
1.00000139605
0.99999619073
0.999994324334
1.00000034822
1.00000120862
1.00000005971
0.99999996598
0.999999999606
0.999999997176
0.999999931948
1.00000001478
0.999999257355
1.00000015244
1.00000862358
0.999999881758
0.999998995066
1.00000037773
0.999999204095
0.999997835326
0.999999160525
0.99999978884
1.00000010893
1.0000002685
1.00000004201
0.999999998747
0.999999997866
0.999999996376
0.999999969329
1.00000000221
0.999999450169
1.0000002684
1.00001837302
0.999994928413
0.99988933873
1.00000664914
1.00003256644
1.00001242868
0.999991535691
0.999952789438
0.999981858991
0.999999339235
1.00000033435
1.00000091956
1.0000001572
0.999999962757
0.999999985773
0.9999999902
0.999999957375
1.00000000167
0.999999598012
1.0000002411
1.00001700598
0.999995426022
0.999899376381
1.00000643007
1.0000287115
0.999999356977
1.00000026223
0.999998180826
0.999998563311
1.00000009601
1.00000006557
1.00000002728
0.999999994945
0.999999979728
0.99999999314
0.999999999651
0.999999900853
1.00000005303
1.00000453285
0.999998098156
0.99993037681
1.00002060642
1.00034623246
0.999978046393
0.999852722103
0.999896451816
1.00006114691
1.00027714013
1.00011781285
1.00000024292
1.00000010201
0.999999985361
0.999999972468
0.999999978843
0.99999999141
0.999999997689
0.999999933384
1.0000000554
1.00000417733
0.99999815916
0.999933370727
1.00001966442
1.00032687828
0.999976262498
0.999864294932
0.999939336935
1.0000397429
1.00015960432
1.00007100577
1.00000002966
1.00000000865
1.00000000104
1.00000000122
1.00000000549
0.999999991699
0.999999999963
1.00000010498
0.999999973718
0.999999245671
1.00000028093
1.00000391947
0.999998766499
0.999983247816
0.999995170501
1.00002091515
1.00005749133
0.999974998313
0.999877384891
0.999948762563
1.00000545201
0.999998215537
1.00000057987
0.99999932092
0.999997037489
0.999999819006
1.00000039465
1.00000002355
0.999999971546
1.00000003454
1.00000000157
0.9999999959
0.999999999782
0.999999986064
1.00000004558
0.999999823751
0.999999519302
1.00000113419
1.00000130629
1.00000014164
1.00000391361
1.0000000571
0.999999530192
0.999999027539
0.999999967876
1.00000004492
0.999999860877
0.999999998815
1.00000000029
1.00000005864
1.00000000082
0.999999988233
0.999999998459
1.00000002331
1.00000007947
0.999999341649
0.999999941338
1.00000255267
0.99999922809
0.999998629062
0.999988939567
1.00002513454
1.00002165415
0.999998854223
1.00000290601
0.999999875448
0.999999030297
0.99999999699
1.00000002538
0.99999998427
1.00000000101
1.00000000172
0.999999998543
1.00000001265
1.00000003938
0.999999863632
1.00000017761
0.999999976555
0.999998351789
0.999999398489
0.999993678758
1.000009867
1.00000934404
1.00000018169
1.0000007915
0.99999988064
0.999999714703
0.999999998935
1.00000000846
0.999999969923
0.999999999995
1.0000000052
1.00000001009
0.999999998445
1.00000014967
0.999999819895
0.999996742482
1.00000012567
1.000008583
1.00000429602
1.00000986239
0.999887099206
0.999887862491
1.00002446495
1.00002341292
0.999999365248
0.999999573933
0.999999942104
0.999999937038
1.00000000992
1.00000000084
0.999999998793
1.00000000275
0.999999998848
1.00000002304
0.999999937099
0.999999163372
1.00000029676
1.00000264272
1.00000113295
1.00000461532
0.999968177117
0.999967604796
1.00000554781
1.00000565691
1.00000002131
1.00000004207
0.999999982346
0.999999980396
1.00000000401
1.00000000077
0.999999998988
1.00000004414
0.999999906569
0.999998530635
1.00000134332
1.00001192604
0.999998591341
0.9999772049
0.99998862313
0.999990123524
1.00028164544
1.00028884467
0.999913971206
0.999910364587
1.00000703995
1.00000749667
0.99999988453
0.999999877622
0.999999993072
0.999999993534
1.00000000007
0.999999998458
1.00000000198
0.999999974835
1.00000004304
1.00000054427
0.999999846668
0.99999853309
0.999999323168
0.999997099233
1.00004376144
1.00004555264
0.999988542521
0.999987718135
1.0000006556
1.00000073168
1.0000000034
1.00000000589
0.99999999931
0.999999998946
1.00000000064
1.0000000051
0.999999995853
1.00000010722
0.999999829289
0.999998273904
1.00000046299
1.00000412546
1.00000195544
1.00000298945
0.999945535591
0.999944298957
1.00001317392
1.00001368991
0.999999576935
0.999999552264
0.999999966921
0.999999962807
1.00000000076
1.00000000085
1.00000000005
1.00000000015
0.999999999674
0.999999996866
1.00000000205
0.999999987493
1.00000001419
1.00000009485
1.00000003564
1.00000068089
0.999994086721
0.999993854783
1.00000104169
1.00000112095
1.00000001159
1.00000001351
0.999999996846
0.999999995855
1.00000000004
0.999999999925
1.00000000046
0.999999999695
0.999999996562
1.00000000647
0.999999998089
1.00000002562
0.99999996225
0.999999817546
0.99999993463
0.999999614241
1.00000201456
1.00000190351
0.999999947792
0.999999998337
0.999999949425
0.999999945808
1.00000000099
1.00000000051
1.00000000016
1.0000000001
1.00000000031
0.999999999932
0.999999996072
0.999999999936
1.00000000016
0.999999999243
1.00000000067
1.00000000064
1.0000000013
0.999999863516
1.00000042896
1.00000045915
0.999999981422
0.99999997525
0.999999994944
0.999999994167
1.00000000011
0.999999999986
1.00000000083
0.999999999832
0.999999972711
1.0000000049
0.999999931396
0.999999989412
0.999999960616
0.999999995106
1.00000000955
1.00000002631
1.00000002105
0.9999992081
1.00000905947
1.00001021582
0.999997501541
0.999996961348
1.00000016522
1.00000022384
0.999999999499
0.9999999983
1.00000000065
0.999999999609
0.999999975963
1.00000000616
0.999999960884
0.999999992268
0.999999968587
1.00000001371
0.999999997429
1.0000000047
0.99999999182
1.00000011928
0.999999684535
0.999999603957
1.00000003011
1.00000005492
1.00000000151
1.00000000124
1.00000000052
0.999999999682
0.999999957159
1.00000001043
0.999999802651
1.00000004796
1.000004841
0.999999979782
0.99999984782
1.00000018216
0.999999824861
1.00000022672
0.999999747589
1.00000084453
0.999998081608
0.999997056503
1.00000007879
1.00000052455
1.00000004055
0.99999999949
0.999999999
0.999999998425
0.999999953184
1.00000001181
0.999999841583
1.00000002063
1.00000406976
1.00000003702
0.999999833121
1.00000008315
0.999999603541
0.999998989517
0.999999601401
0.999999885284
1.00000002542
1.00000009781
1.00000002511
1.00000001038
0.99999999941
0.999999998209
0.999999978686
1.00000000332
0.999999907366
1.00000007159
1.000008518
0.999997710892
0.999940294968
1.00000301607
1.0000140082
1.00000389244
0.999997341957
0.999980546853
0.999993414081
0.999999632316
1.00000009009
1.00000036792
1.00000009282
1.00000001596
0.999999995735
0.999999994571
0.99999997348
1.00000000293
0.999999977769
1.00000006098
1.00000787765
0.999997956958
0.999945832964
1.00000271432
1.00001252516
0.999999088811
1.0000013397
1.00000118152
1.00000041695
1.0000000382
1.00000003807
1.00000002833
1.00000000294
0.999999991621
0.999999995622
0.999999999757
0.999999980445
1.00000001808
1.00000204221
0.999999122897
0.999963399477
1.00001071038
1.00019605225
0.999987825448
0.999926519072
0.999953948081
1.00002732929
1.00013334283
1.00005561047
1.00000010922
1.00000006462
1.00000002507
0.999999996202
0.999999991815
0.999999994622
0.999999998569
0.999999996273
1.00000001958
1.00000185762
0.999999148332
0.999964925874
1.00001020826
1.00018511516
0.99998737467
0.999931819001
0.999973227228
1.00001667499
1.00007534466
1.00003331131
1.00000001117
1.00000000296
1.00000000206
1.00000000154
1.00000000378
0.999999996253
1.00000000027
1.00000006494
0.999999982787
0.99999948872
1.00000019387
1.00000260397
0.999999103287
0.999989415115
0.99999789254
1.00001243067
1.00003081834
0.999986141489
0.999932777339
0.9999719049
1.00000044122
1.00000071967
1.00000082792
0.999999899575
0.999999766821
0.99999996389
0.999999997383
1.00000000164
0.999999998264
1.00000000278
1.00000000017
0.999999999839
1.00000000024
0.999999996396
0.999999999974
1.00000001066
0.999999970921
1.0000000305
1.00000009014
1.00000003732
1.00000026361
1.00000047117
1.00000048877
0.99999994152
0.99999997502
0.999999979372
0.999999979465
1.00000000098
0.999999998729
1.00000000482
1.00000000016
0.999999999368
1.00000000077
0.999999996124
1.00000000869
0.999999981434
0.999999892918
1.00000011412
1.00000014853
1.00000006191
0.999998944644
0.999999552176
0.999999490896
1.00000059085
1.00000076453
0.999999960952
0.999999941366
0.999999998796
0.999999995304
0.99999999886
1.00000000024
1.00000000015
1.00000000033
0.999999999162
1.00000000582
0.999999987483
0.999999940326
1.00000001016
1.00000004039
1.00000004314
0.999999461774
0.999999608775
0.99999958967
1.00000028167
1.00000031823
0.999999990907
0.999999981555
0.99999999855
0.999999998633
0.999999997932
1.00000000013
1.00000000015
1.00000000234
0.999999997486
0.999999970671
0.999999998401
0.999999981866
1.00000006822
1.00000035685
1.00000013183
1.00000100662
0.999994373914
0.999994422876
1.00000034472
1.00000027807
1.00000016794
1.00000017433
0.999999989051
0.99999998992
1.00000000061
0.999999999705
0.999999999858
1.00000000042
0.999999999367
0.999999990877
1.00000000324
1.00000001559
1.00000002175
1.00000007462
1.0000000161
1.0000004454
0.999998700999
0.999998670398
0.999999904885
0.99999990321
1.00000006092
1.00000006368
0.999999998166
0.999999998163
1.00000000004
1.00000000017
0.999999999421
0.999999997071
1.00000000094
0.999999940923
1.0000000788
1.00000075278
0.999999859782
0.999998368756
0.999999200094
0.99999905824
1.00002077524
1.00002133007
0.999994449255
0.999994183433
1.00000024861
1.0000002715
1.00000001905
1.00000002084
0.999999998617
0.999999998574
0.999999999979
0.999999999582
1.00000000078
1.00000000497
0.999999997791
1.00000000337
0.999999988518
0.999999938668
0.999999975907
0.999999721356
1.00000296604
1.00000309662
0.999999410378
0.999999357539
0.999999992878
0.99999999422
1.00000000372
1.00000000452
0.999999999975
0.999999999949
1.00000000003
1.00000000163
0.999999997195
0.999999987233
1.00000000098
0.999999957326
1.0000000421
1.00000021898
1.00000009628
1.00000028933
0.999996831596
0.999996761917
1.00000038429
1.00000040271
1.00000008168
1.000000086
0.999999992656
0.999999991848
0.999999999846
0.999999999835
1.00000000001
0.999999999976
0.999999999988
0.999999999325
1.00000000085
1.00000000408
1.00000000056
0.999999999282
0.999999998276
1.00000006645
0.999999705437
0.999999693745
0.999999989529
0.999999990588
1.00000001284
1.00000001428
0.999999999738
0.999999999615
0.999999999985
0.999999999953
0.999999999869
1.0000000001
0.999999999143
1.00000000145
0.999999997992
0.999999991928
0.999999997932
1.0000000005
1.00000000324
0.999999954655
0.999999996852
0.999999987718
1.00000006715
1.00000007068
0.999999992043
0.999999992233
0.999999999542
0.999999999418
1.00000000003
1.00000000002
0.999999999864
1.00000000003
0.999999999306
0.999999999911
0.999999999822
0.99999999999
1.00000000014
1.00000000043
1.00000000028
0.999999986154
1.0000000056
1.00000000622
1.00000000988
1.00000001055
0.999999999257
0.999999999054
0.999999999956
0.999999999921
0.999999999618
1.00000000011
0.999999994849
1.00000000081
1.000000015
0.999999998764
0.999999994515
1.00000000117
0.999999999165
1.00000000215
1.00000000021
0.999999935218
1.00000071533
1.00000080113
0.999999829816
0.999999794334
1.00000000383
1.00000000566
1.00000000074
1.00000000095
0.999999999598
1.00000000008
0.999999995729
1.00000000083
1.00000001435
0.99999999981
0.999999995116
1.00000000124
0.999999996364
0.999999994259
0.999999996175
1.00000000983
0.999999990576
0.999999987505
0.999999996988
0.999999996748
1.00000000041
1.00000000076
0.999999999556
1.00000000007
0.999999992926
1.00000000208
1.0000000659
0.999999983177
1.00000016425
1.00000003368
1.00000012166
1.00000004578
0.999999956718
0.999999878024
0.999999904609
1.00000006869
0.999999909046
0.999999841013
0.999999977134
1.00000000112
1.00000000562
1.00000000545
0.999999999551
0.999999999904
0.999999993271
1.00000000204
1.00000006048
0.999999983638
1.00000012263
1.00000003284
1.00000009801
0.999999970827
0.999999982258
0.99999997289
0.999999982574
0.999999992401
0.999999992896
0.999999993941
1.00000000258
1.00000000393
1.00000000008
0.999999999971
0.999999997019
1.00000000087
1.00000005304
0.999999983692
1.00000020401
0.999999970345
0.999996145572
1.00000004175
0.999999970505
0.999999499846
1.00000033717
1.00000033202
1.00000042553
0.999999974263
0.999999982709
0.999999990515
1.00000000927
1.00000001173
1.0000000007
0.999999999661
0.999999996981
1.0000000008
1.00000005486
0.999999984236
1.00000018676
0.999999979368
0.999996529108
0.999999972783
1.00000003296
0.999999785267
1.00000041086
1.00000064469
1.00000035313
0.999999999311
1.00000000337
1.00000000557
1.00000000204
1.00000000054
0.999999999495
0.999999999944
1.00000000805
0.999999998334
1.00000002954
0.999999981757
0.999997912467
1.00000057574
1.00001445557
0.999999123791
0.999996864848
0.999999620893
1.00000027702
1.00000424559
1.00000150537
1.00000000204
1.00000000711
1.00000001066
1.00000000327
1.00000000094
0.999999999403
0.999999999788
1.00000000861
0.999999998489
1.00000002021
0.999999981386
0.999997986974
1.00000054582
1.00001365743
0.999999227996
0.999996955369
0.999999840276
0.999999838208
1.00000201571
1.00000086157
0.999999999354
0.999999999654
1.00000000039
1.00000000041
1.00000000059
0.999999999909
1.00000000012
1.00000000689
0.999999998038
0.999999948795
1.00000002055
1.00000023204
0.999999902792
0.999999075813
0.999999959346
1.00000097465
1.00000186099
0.999999054555
0.999995643004
0.999998201921
0.999999812579
1.00000016081
1.00000004906
1.00000002376
1.00000014073
1.00000000092
0.999999971138
0.999999998743
1.00000000099
0.999999998903
0.999999999986
1.00000000008
1.00000000001
1.00000000028
0.999999997804
1.0000000078
1.0000000213
0.999999948476
0.999999939235
0.999999994142
0.999999859944
1.00000004627
1.00000007037
1.00000004148
1.00000000176
0.999999993119
0.999999999044
0.999999999933
0.99999999979
0.999999997327
1.00000000001
1.00000000051
1.00000000028
0.999999998364
0.999999996576
1.00000002832
0.999999992743
0.99999988033
1.00000004162
1.00000007091
1.00000051388
0.99999881634
0.999998977851
1.00000011622
0.999999929374
1.00000000219
1.00000003874
0.999999999368
0.99999999782
1.00000000095
0.999999999986
0.999999999875
1.00000000016
0.999999999223
0.999999998374
1.00000000501
0.999999986536
1.00000000213
1.0000000806
1.00000003141
1.00000028167
0.999999520769
0.999999543526
1.00000002181
0.99999999349
1.00000000556
1.00000001211
0.999999999637
0.999999999288
1.00000000124
1.00000000004
0.999999999753
0.999999999897
0.999999999549
0.999999989402
1.00000000785
1.00000014733
1.00000000033
0.999999612826
0.99999981249
0.999999300327
1.00000506638
1.0000050223
0.999998929649
0.999998978185
1.00000005245
1.0000000434
1.0000000009
1.00000000128
0.999999999303
0.999999999843
1.00000000001
0.999999999909
0.999999999971
0.999999997866
1.00000000325
1.00000003995
0.999999988004
0.999999879247
0.999999948866
0.999999705748
1.00000140584
1.00000143096
0.99999974516
0.999999740392
1.00000000826
1.00000000772
1.00000000065
1.00000000075
0.999999999781
0.999999999987
0.999999999917
0.999999997642
1.00000000408
1.00000006077
0.999999944332
0.99999946637
1.00000007858
1.00000110719
1.00000054035
1.00000077927
0.999986490318
0.999986138317
1.00000375512
1.00000391424
0.999999715657
0.999999698822
1.00000000793
1.00000000831
1.00000000002
0.999999999997
0.999999999989
0.999999999996
1.00000000006
1.00000000182
0.999999997883
0.999999975409
1.00000000611
1.00000006614
1.00000002931
1.00000021776
0.999997939152
0.999997852386
1.0000004864
1.00000052192
0.99999997076
0.999999968313
1.00000000055
1.00000000054
1.00000000004
1.00000000006
0.999999999955
1.00000000009
0.999999999588
0.999999993198
1.00000000719
1.00000007361
0.999999981251
0.999999817375
0.999999918804
0.999999738039
1.00000242504
1.00000248067
0.999999456103
0.999999434968
1.00000003145
1.00000003288
1.00000000008
1.00000000008
0.99999999988
0.99999999987
0.999999999997
0.999999999977
1.00000000002
1.00000000004
1.00000000008
1.00000000115
0.999999999571
0.99999999571
0.999999998354
0.999999946132
1.00000025499
1.00000026541
0.999999953995